 Gaussian 09, Revision D.01,
 Gaussian 09:  ES64L-G09RevD.01 24-Apr-2013

 ----------------------------------------
 # rb3lyp/6-311+g** NMR geom=connectivity
 ----------------------------------------

 -----
 Title
 -----
 Symbolic Z-matrix:
 Charge =  0 Multiplicity = 1

                          Input orientation:
 ---------------------------------------------------------------------
 Center     Atomic      Atomic             Coordinates (Angstroms)
 Number     Number       Type             X           Y           Z
 ---------------------------------------------------------------------
      1          6           0        2.450760   -0.711740    0.000000
      2          6           0        2.450760    0.711740    0.000000
      3          6           0        1.251390    1.411370    0.000000
      4          6           0        0.000000    0.722890    0.000000
      5          6           0       -1.251390    1.411370    0.000000
      6          6           0       -2.450760    0.711740    0.000000
      7          6           0       -2.450760   -0.711740    0.000000
      8          6           0       -1.251390   -1.411370    0.000000
      9          6           0        0.000000   -0.722890    0.000000
     10          6           0        1.251390   -1.411370    0.000000
     11          1           0        3.408730   -1.257910    0.000000
     12          1           0        3.408730    1.257910    0.000000
     13          1           0        1.249720    2.514720    0.000000
     14          1           0       -1.249720    2.514720    0.000000
     15          1           0       -3.408730    1.257910    0.000000
     16          1           0       -3.408730   -1.257910    0.000000
     17          1           0       -1.249720   -2.514720    0.000000
     18          1           0        1.249720   -2.514720    0.000000
     19          0           0        1.249720   -3.480646   -0.258819
     20          0           0        1.499720   -3.447733   -0.258819
     21          0           0        1.732683   -3.351236   -0.258819
     22          0           0        1.932733   -3.197733   -0.258819
     23          0           0        2.086236   -2.997683   -0.258819
     24          0           0        2.182733   -2.764720   -0.258819
     25          0           0        2.115745   -2.514720   -0.500000
     26          0           0        2.086236   -2.290576   -0.500000
     27          0           0        1.999720   -2.081707   -0.500000
     28          0           0        0.499720   -2.081707   -0.500000
     29          0           0        0.413204   -2.290576   -0.500000
     30          0           0        0.383695   -2.514720   -0.500000
     31          0           0        0.413204   -2.738864   -0.500000
     32          0           0        0.499720   -2.947733   -0.500000
     33          0           0        0.637348   -3.127092   -0.500000
     34          0           0        0.816707   -3.264720   -0.500000
     35          0           0        1.025576   -3.351236   -0.500000
     36          0           0        1.249720   -3.380745   -0.500000
     37          0           0        1.473864   -3.351236   -0.500000
     38          0           0        1.682733   -3.264720   -0.500000
     39          0           0        1.862092   -3.127092   -0.500000
     40          0           0        1.999720   -2.947733   -0.500000
     41          0           0        2.086236   -2.738864   -0.500000
     42          0           0        1.956827   -2.514720   -0.707107
     43          0           0        1.932733   -2.331707   -0.707107
     44          0           0        1.862092   -2.161167   -0.707107
     45          0           0        1.749720   -2.014720   -0.707107
     46          0           0        0.749720   -2.014720   -0.707107
     47          0           0        0.637348   -2.161167   -0.707107
     48          0           0        0.566707   -2.331707   -0.707107
     49          0           0        0.542613   -2.514720   -0.707107
     50          0           0        0.566707   -2.697733   -0.707107
     51          0           0        0.637348   -2.868273   -0.707107
     52          0           0        0.749720   -3.014720   -0.707107
     53          0           0        0.896167   -3.127092   -0.707107
     54          0           0        1.066707   -3.197733   -0.707107
     55          0           0        1.249720   -3.221827   -0.707107
     56          0           0        1.432733   -3.197733   -0.707107
     57          0           0        1.603273   -3.127092   -0.707107
     58          0           0        1.749720   -3.014720   -0.707107
     59          0           0        1.862092   -2.868273   -0.707107
     60          0           0        1.932733   -2.697733   -0.707107
     61          0           0        1.749720   -2.514720   -0.866025
     62          0           0        1.732683   -2.385310   -0.866025
     63          0           0        1.682733   -2.264720   -0.866025
     64          0           0        1.603273   -2.161167   -0.866025
     65          0           0        1.499720   -2.081707   -0.866025
     66          0           0        1.379130   -2.031757   -0.866025
     67          0           0        1.249720   -2.014720   -0.866025
     68          0           0        1.120310   -2.031757   -0.866025
     69          0           0        0.999720   -2.081707   -0.866025
     70          0           0        0.896167   -2.161167   -0.866025
     71          0           0        0.816707   -2.264720   -0.866025
     72          0           0        0.766757   -2.385310   -0.866025
     73          0           0        0.749720   -2.514720   -0.866025
     74          0           0        0.766757   -2.644130   -0.866025
     75          0           0        0.816707   -2.764720   -0.866025
     76          0           0        0.896167   -2.868273   -0.866025
     77          0           0        0.999720   -2.947733   -0.866025
     78          0           0        1.120310   -2.997683   -0.866025
     79          0           0        1.249720   -3.014720   -0.866025
     80          0           0        1.379130   -2.997683   -0.866025
     81          0           0        1.499720   -2.947733   -0.866025
     82          0           0        1.603273   -2.868273   -0.866025
     83          0           0        1.682733   -2.764720   -0.866025
     84          0           0        1.732683   -2.644130   -0.866025
     85          0           0        1.508539   -2.514720   -0.965926
     86          0           0        1.499720   -2.447733   -0.965926
     87          0           0        1.473864   -2.385310   -0.965926
     88          0           0        1.432733   -2.331707   -0.965926
     89          0           0        1.379130   -2.290576   -0.965926
     90          0           0        1.316707   -2.264720   -0.965926
     91          0           0        1.249720   -2.255901   -0.965926
     92          0           0        1.182733   -2.264720   -0.965926
     93          0           0        1.120310   -2.290576   -0.965926
     94          0           0        1.066707   -2.331707   -0.965926
     95          0           0        1.025576   -2.385310   -0.965926
     96          0           0        0.999720   -2.447733   -0.965926
     97          0           0        0.990901   -2.514720   -0.965926
     98          0           0        0.999720   -2.581707   -0.965926
     99          0           0        1.025576   -2.644130   -0.965926
    100          0           0        1.066707   -2.697733   -0.965926
    101          0           0        1.120310   -2.738864   -0.965926
    102          0           0        1.182733   -2.764720   -0.965926
    103          0           0        1.249720   -2.773539   -0.965926
    104          0           0        1.316707   -2.764720   -0.965926
    105          0           0        1.379130   -2.738864   -0.965926
    106          0           0        1.432733   -2.697733   -0.965926
    107          0           0        1.473864   -2.644130   -0.965926
    108          0           0        1.499720   -2.581707   -0.965926
    109          0           0       -1.234050    0.000000    1.000000
    110          0           0       -1.234050    0.000000    1.000000
    111          0           0       -1.234050    0.000000    1.000000
    112          0           0       -1.234050    0.000000    1.000000
    113          0           0       -1.234050    0.000000    1.000000
    114          0           0       -1.234050    0.000000    1.000000
    115          0           0       -1.234050    0.000000    1.000000
    116          0           0       -1.234050    0.000000    1.000000
    117          0           0       -1.234050    0.000000    1.000000
    118          0           0       -1.234050    0.000000    1.000000
    119          0           0       -1.234050    0.000000    1.000000
    120          0           0       -1.234050    0.000000    1.000000
    121          0           0       -1.234050    0.000000    1.000000
    122          0           0       -1.234050    0.000000    1.000000
    123          0           0       -1.234050    0.000000    1.000000
    124          0           0       -1.234050    0.000000    1.000000
    125          0           0       -1.234050    0.000000    1.000000
    126          0           0       -1.234050    0.000000    1.000000
    127          0           0       -1.234050    0.000000    1.000000
    128          0           0       -1.234050    0.000000    1.000000
    129          0           0       -1.234050    0.000000    1.000000
    130          0           0       -1.234050    0.000000    1.000000
    131          0           0       -1.234050    0.000000    1.000000
    132          0           0       -1.234050    0.000000    1.000000
    133          0           0       -0.975231    0.000000    0.965926
    134          0           0       -0.984050    0.066987    0.965926
    135          0           0       -1.009906    0.129410    0.965926
    136          0           0       -1.051037    0.183013    0.965926
    137          0           0       -1.104640    0.224144    0.965926
    138          0           0       -1.167063    0.250000    0.965926
    139          0           0       -1.234050    0.258819    0.965926
    140          0           0       -1.301037    0.250000    0.965926
    141          0           0       -1.363460    0.224144    0.965926
    142          0           0       -1.417063    0.183013    0.965926
    143          0           0       -1.458194    0.129410    0.965926
    144          0           0       -1.484050    0.066987    0.965926
    145          0           0       -1.492869    0.000000    0.965926
    146          0           0       -1.484050   -0.066987    0.965926
    147          0           0       -1.458194   -0.129410    0.965926
    148          0           0       -1.417063   -0.183013    0.965926
    149          0           0       -1.363460   -0.224144    0.965926
    150          0           0       -1.301037   -0.250000    0.965926
    151          0           0       -1.234050   -0.258819    0.965926
    152          0           0       -1.167063   -0.250000    0.965926
    153          0           0       -1.104640   -0.224144    0.965926
    154          0           0       -1.051037   -0.183013    0.965926
    155          0           0       -1.009906   -0.129410    0.965926
    156          0           0       -0.984050   -0.066987    0.965926
    157          0           0       -0.734050    0.000000    0.866025
    158          0           0       -0.751087    0.129410    0.866025
    159          0           0       -0.801037    0.250000    0.866025
    160          0           0       -0.880497    0.353553    0.866025
    161          0           0       -0.984050    0.433013    0.866025
    162          0           0       -1.104640    0.482963    0.866025
    163          0           0       -1.234050    0.500000    0.866025
    164          0           0       -1.363460    0.482963    0.866025
    165          0           0       -1.484050    0.433013    0.866025
    166          0           0       -1.587603    0.353553    0.866025
    167          0           0       -1.667063    0.250000    0.866025
    168          0           0       -1.717013    0.129410    0.866025
    169          0           0       -1.734050    0.000000    0.866025
    170          0           0       -1.717013   -0.129410    0.866025
    171          0           0       -1.667063   -0.250000    0.866025
    172          0           0       -1.587603   -0.353553    0.866025
    173          0           0       -1.484050   -0.433013    0.866025
    174          0           0       -1.363460   -0.482963    0.866025
    175          0           0       -1.234050   -0.500000    0.866025
    176          0           0       -1.104640   -0.482963    0.866025
    177          0           0       -0.984050   -0.433013    0.866025
    178          0           0       -0.880497   -0.353553    0.866025
    179          0           0       -0.801037   -0.250000    0.866025
    180          0           0       -0.751087   -0.129410    0.866025
    181          0           0       -0.526943    0.000000    0.707107
    182          0           0       -0.551037    0.183013    0.707107
    183          0           0       -0.621678    0.353553    0.707107
    184          0           0       -0.734050    0.500000    0.707107
    185          0           0       -0.880497    0.612372    0.707107
    186          0           0       -1.051037    0.683013    0.707107
    187          0           0       -1.417063    0.683013    0.707107
    188          0           0       -1.587603    0.612372    0.707107
    189          0           0       -1.734050    0.500000    0.707107
    190          0           0       -1.917063    0.183013    0.707107
    191          0           0       -1.941157    0.000000    0.707107
    192          0           0       -1.917063   -0.183013    0.707107
    193          0           0       -1.734050   -0.500000    0.707107
    194          0           0       -1.587603   -0.612372    0.707107
    195          0           0       -1.417063   -0.683013    0.707107
    196          0           0       -1.051037   -0.683013    0.707107
    197          0           0       -0.880497   -0.612372    0.707107
    198          0           0       -0.734050   -0.500000    0.707107
    199          0           0       -0.621678   -0.353553    0.707107
    200          0           0       -0.551037   -0.183013    0.707107
    201          0           0       -0.526943    0.000000   -0.707107
    202          0           0       -0.551037    0.183013   -0.707107
    203          0           0       -0.621678    0.353553   -0.707107
    204          0           0       -0.734050    0.500000   -0.707107
    205          0           0       -0.880497    0.612372   -0.707107
    206          0           0       -1.051037    0.683013   -0.707107
    207          0           0       -1.417063    0.683013   -0.707107
    208          0           0       -1.587603    0.612372   -0.707107
    209          0           0       -1.734050    0.500000   -0.707107
    210          0           0       -1.917063    0.183013   -0.707107
    211          0           0       -1.941157    0.000000   -0.707107
    212          0           0       -1.917063   -0.183013   -0.707107
    213          0           0       -1.734050   -0.500000   -0.707107
    214          0           0       -1.587603   -0.612372   -0.707107
    215          0           0       -1.417063   -0.683013   -0.707107
    216          0           0       -1.051037   -0.683013   -0.707107
    217          0           0       -0.880497   -0.612372   -0.707107
    218          0           0       -0.734050   -0.500000   -0.707107
 ---------------------------------------------------------------------

 SCF Done:  E(RB3LYP) =  -385.985931946     A.U. after   11 cycles

      1  C    Isotropic =    48.8814   Anisotropy =   178.3631

      2  C    Isotropic =    48.8814   Anisotropy =   178.3631

      3  C    Isotropic =    47.0315   Anisotropy =   159.6105

      4  C    Isotropic =    40.3220   Anisotropy =   214.7654

      5  C    Isotropic =    47.0315   Anisotropy =   159.6105

      6  C    Isotropic =    48.8814   Anisotropy =   178.3631

      7  C    Isotropic =    48.8814   Anisotropy =   178.3631

      8  C    Isotropic =    47.0315   Anisotropy =   159.6105

      9  C    Isotropic =    40.3220   Anisotropy =   214.7654

     10  C    Isotropic =    47.0315   Anisotropy =   159.6105

     11  H    Isotropic =    23.8865   Anisotropy =     5.6622

     12  H    Isotropic =    23.8865   Anisotropy =     5.6622

     13  H    Isotropic =    23.5289   Anisotropy =     7.4859

     14  H    Isotropic =    23.5289   Anisotropy =     7.4859

     15  H    Isotropic =    23.8865   Anisotropy =     5.6622

     16  H    Isotropic =    23.8865   Anisotropy =     5.6622

     17  H    Isotropic =    23.5289   Anisotropy =     7.4859

     18  H    Isotropic =    23.5289   Anisotropy =     7.4859

     19  Bq   Isotropic =    -0.5336   Anisotropy =     8.8779

     20  Bq   Isotropic =    -0.4683   Anisotropy =     9.0499

     21  Bq   Isotropic =    -0.3963   Anisotropy =     9.3463

     22  Bq   Isotropic =    -0.3200   Anisotropy =     9.7741

     23  Bq   Isotropic =    -0.2373   Anisotropy =    10.3050

     24  Bq   Isotropic =    -0.1221   Anisotropy =    10.8854

     25  Bq   Isotropic =     0.5498   Anisotropy =    11.3593

     26  Bq   Isotropic =     1.5078   Anisotropy =    11.2381

     27  Bq   Isotropic =     3.7227   Anisotropy =    10.7742

     28  Bq   Isotropic =     2.3844   Anisotropy =    13.9166

     29  Bq   Isotropic =     0.4757   Anisotropy =    13.0749

     30  Bq   Isotropic =    -0.2172   Anisotropy =    11.4272

     31  Bq   Isotropic =    -0.4251   Anisotropy =     9.8826

     32  Bq   Isotropic =    -0.4830   Anisotropy =     9.1426

     33  Bq   Isotropic =    -0.4934   Anisotropy =     9.0089

     34  Bq   Isotropic =    -0.4817   Anisotropy =     9.0496

     35  Bq   Isotropic =    -0.4523   Anisotropy =     9.1100

     36  Bq   Isotropic =    -0.4058   Anisotropy =     9.1970

     37  Bq   Isotropic =    -0.3433   Anisotropy =     9.3577

     38  Bq   Isotropic =    -0.2662   Anisotropy =     9.6275

     39  Bq   Isotropic =    -0.1723   Anisotropy =    10.0115

     40  Bq   Isotropic =    -0.0494   Anisotropy =    10.4825

     41  Bq   Isotropic =     0.1469   Anisotropy =    10.9775

     42  Bq   Isotropic =     1.0870   Anisotropy =    11.5298

     43  Bq   Isotropic =     2.0545   Anisotropy =    11.5443

     44  Bq   Isotropic =     3.7874   Anisotropy =    10.9633

     45  Bq   Isotropic =     6.4902   Anisotropy =     9.7586

     46  Bq   Isotropic =     5.4799   Anisotropy =     7.9211

     47  Bq   Isotropic =     2.8800   Anisotropy =     9.5209

     48  Bq   Isotropic =     1.3034   Anisotropy =    10.0610

     49  Bq   Isotropic =     0.4925   Anisotropy =     9.9385

     50  Bq   Isotropic =     0.1059   Anisotropy =     9.6936

     51  Bq   Isotropic =    -0.0782   Anisotropy =     9.5742

     52  Bq   Isotropic =    -0.1661   Anisotropy =     9.5652

     53  Bq   Isotropic =    -0.2010   Anisotropy =     9.5954

     54  Bq   Isotropic =    -0.1994   Anisotropy =     9.6407

     55  Bq   Isotropic =    -0.1680   Anisotropy =     9.7197

     56  Bq   Isotropic =    -0.1096   Anisotropy =     9.8642

     57  Bq   Isotropic =    -0.0234   Anisotropy =    10.0967

     58  Bq   Isotropic =     0.0983   Anisotropy =    10.4197

     59  Bq   Isotropic =     0.2776   Anisotropy =    10.8108

     60  Bq   Isotropic =     0.5683   Anisotropy =    11.2165

     61  Bq   Isotropic =     1.5973   Anisotropy =    11.8957

     62  Bq   Isotropic =     2.3638   Anisotropy =    12.0927

     63  Bq   Isotropic =     3.4456   Anisotropy =    12.1405

     64  Bq   Isotropic =     4.8073   Anisotropy =    12.0363

     65  Bq   Isotropic =     6.2290   Anisotropy =    11.8526

     66  Bq   Isotropic =     7.3087   Anisotropy =    11.6626

     67  Bq   Isotropic =     7.6398   Anisotropy =    11.4440

     68  Bq   Isotropic =     7.0718   Anisotropy =    11.1576

     69  Bq   Isotropic =     5.8208   Anisotropy =    10.8830

     70  Bq   Isotropic =     4.3183   Anisotropy =    10.7231

     71  Bq   Isotropic =     2.9513   Anisotropy =    10.6593

     72  Bq   Isotropic =     1.9111   Anisotropy =    10.6040

     73  Bq   Isotropic =     1.2070   Anisotropy =    10.5212

     74  Bq   Isotropic =     0.7622   Anisotropy =    10.4353

     75  Bq   Isotropic =     0.4911   Anisotropy =    10.3734

     76  Bq   Isotropic =     0.3317   Anisotropy =    10.3417

     77  Bq   Isotropic =     0.2465   Anisotropy =    10.3370

     78  Bq   Isotropic =     0.2153   Anisotropy =    10.3623

     79  Bq   Isotropic =     0.2281   Anisotropy =    10.4288

     80  Bq   Isotropic =     0.2812   Anisotropy =    10.5506

     81  Bq   Isotropic =     0.3769   Anisotropy =    10.7369

     82  Bq   Isotropic =     0.5254   Anisotropy =    10.9871

     83  Bq   Isotropic =     0.7483   Anisotropy =    11.2868

     84  Bq   Isotropic =     1.0850   Anisotropy =    11.6058

     85  Bq   Isotropic =     1.9360   Anisotropy =    12.1991

     86  Bq   Isotropic =     2.3388   Anisotropy =    12.3750

     87  Bq   Isotropic =     2.7937   Anisotropy =    12.5182

     88  Bq   Isotropic =     3.2580   Anisotropy =    12.6163

     89  Bq   Isotropic =     3.6648   Anisotropy =    12.6603

     90  Bq   Isotropic =     3.9362   Anisotropy =    12.6429

     91  Bq   Isotropic =     4.0097   Anisotropy =    12.5606

     92  Bq   Isotropic =     3.8648   Anisotropy =    12.4196

     93  Bq   Isotropic =     3.5329   Anisotropy =    12.2378

     94  Bq   Isotropic =     3.0837   Anisotropy =    12.0397

     95  Bq   Isotropic =     2.5972   Anisotropy =    11.8465

     96  Bq   Isotropic =     2.1386   Anisotropy =    11.6717

     97  Bq   Isotropic =     1.7464   Anisotropy =    11.5222

     98  Bq   Isotropic =     1.4347   Anisotropy =    11.4016

     99  Bq   Isotropic =     1.2016   Anisotropy =    11.3117

    100  Bq   Isotropic =     1.0386   Anisotropy =    11.2534

    101  Bq   Isotropic =     0.9357   Anisotropy =    11.2274

    102  Bq   Isotropic =     0.8851   Anisotropy =    11.2353

    103  Bq   Isotropic =     0.8815   Anisotropy =    11.2792

    104  Bq   Isotropic =     0.9229   Anisotropy =    11.3607

    105  Bq   Isotropic =     1.0104   Anisotropy =    11.4797

    106  Bq   Isotropic =     1.1482   Anisotropy =    11.6327

    107  Bq   Isotropic =     1.3431   Anisotropy =    11.8120

    108  Bq   Isotropic =     1.6036   Anisotropy =    12.0059

    109  Bq   Isotropic =    10.5208   Anisotropy =    27.8321

    110  Bq   Isotropic =    10.5208   Anisotropy =    27.8321

    111  Bq   Isotropic =    10.5208   Anisotropy =    27.8321

    112  Bq   Isotropic =    10.5208   Anisotropy =    27.8321

    113  Bq   Isotropic =    10.5208   Anisotropy =    27.8321

    114  Bq   Isotropic =    10.5208   Anisotropy =    27.8321

    115  Bq   Isotropic =    10.5208   Anisotropy =    27.8321

    116  Bq   Isotropic =    10.5208   Anisotropy =    27.8321

    117  Bq   Isotropic =    10.5208   Anisotropy =    27.8321

    118  Bq   Isotropic =    10.5208   Anisotropy =    27.8321

    119  Bq   Isotropic =    10.5208   Anisotropy =    27.8321

    120  Bq   Isotropic =    10.5208   Anisotropy =    27.8321

    121  Bq   Isotropic =    10.5208   Anisotropy =    27.8321

    122  Bq   Isotropic =    10.5208   Anisotropy =    27.8321

    123  Bq   Isotropic =    10.5208   Anisotropy =    27.8321

    124  Bq   Isotropic =    10.5208   Anisotropy =    27.8321

    125  Bq   Isotropic =    10.5208   Anisotropy =    27.8321

    126  Bq   Isotropic =    10.5208   Anisotropy =    27.8321

    127  Bq   Isotropic =    10.5208   Anisotropy =    27.8321

    128  Bq   Isotropic =    10.5208   Anisotropy =    27.8321

    129  Bq   Isotropic =    10.5208   Anisotropy =    27.8321

    130  Bq   Isotropic =    10.5208   Anisotropy =    27.8321

    131  Bq   Isotropic =    10.5208   Anisotropy =    27.8321

    132  Bq   Isotropic =    10.5208   Anisotropy =    27.8321

    133  Bq   Isotropic =    10.9637   Anisotropy =    27.9838

    134  Bq   Isotropic =    10.9691   Anisotropy =    27.9698

    135  Bq   Isotropic =    10.9872   Anisotropy =    27.9379

    136  Bq   Isotropic =    11.0221   Anisotropy =    27.9111

    137  Bq   Isotropic =    11.0769   Anisotropy =    27.9107

    138  Bq   Isotropic =    11.1497   Anisotropy =    27.9482

    139  Bq   Isotropic =    11.2331   Anisotropy =    28.0248

    140  Bq   Isotropic =    11.3148   Anisotropy =    28.1327

    141  Bq   Isotropic =    11.3829   Anisotropy =    28.2565

    142  Bq   Isotropic =    11.4301   Anisotropy =    28.3773

    143  Bq   Isotropic =    11.4569   Anisotropy =    28.4781

    144  Bq   Isotropic =    11.4688   Anisotropy =    28.5450

    145  Bq   Isotropic =    11.4720   Anisotropy =    28.5685

    146  Bq   Isotropic =    11.4688   Anisotropy =    28.5450

    147  Bq   Isotropic =    11.4569   Anisotropy =    28.4781

    148  Bq   Isotropic =    11.4301   Anisotropy =    28.3773

    149  Bq   Isotropic =    11.3829   Anisotropy =    28.2565

    150  Bq   Isotropic =    11.3148   Anisotropy =    28.1327

    151  Bq   Isotropic =    11.2331   Anisotropy =    28.0248

    152  Bq   Isotropic =    11.1497   Anisotropy =    27.9482

    153  Bq   Isotropic =    11.0769   Anisotropy =    27.9107

    154  Bq   Isotropic =    11.0221   Anisotropy =    27.9111

    155  Bq   Isotropic =    10.9872   Anisotropy =    27.9379

    156  Bq   Isotropic =    10.9691   Anisotropy =    27.9698

    157  Bq   Isotropic =    13.1634   Anisotropy =    28.9491

    158  Bq   Isotropic =    13.1468   Anisotropy =    28.7966

    159  Bq   Isotropic =    13.1248   Anisotropy =    28.4760

    160  Bq   Isotropic =    13.1517   Anisotropy =    28.2341

    161  Bq   Isotropic =    13.2617   Anisotropy =    28.1611

    162  Bq   Isotropic =    13.4599   Anisotropy =    28.2065

    163  Bq   Isotropic =    13.7270   Anisotropy =    28.3576

    164  Bq   Isotropic =    14.0013   Anisotropy =    28.6342

    165  Bq   Isotropic =    14.1900   Anisotropy =    28.9809

    166  Bq   Isotropic =    14.2437   Anisotropy =    29.3070

    167  Bq   Isotropic =    14.2033   Anisotropy =    29.5786

    168  Bq   Isotropic =    14.1490   Anisotropy =    29.7817

    169  Bq   Isotropic =    14.1277   Anisotropy =    29.8621

    170  Bq   Isotropic =    14.1490   Anisotropy =    29.7817

    171  Bq   Isotropic =    14.2033   Anisotropy =    29.5786

    172  Bq   Isotropic =    14.2437   Anisotropy =    29.3070

    173  Bq   Isotropic =    14.1900   Anisotropy =    28.9809

    174  Bq   Isotropic =    14.0013   Anisotropy =    28.6342

    175  Bq   Isotropic =    13.7270   Anisotropy =    28.3576

    176  Bq   Isotropic =    13.4599   Anisotropy =    28.2065

    177  Bq   Isotropic =    13.2617   Anisotropy =    28.1611

    178  Bq   Isotropic =    13.1517   Anisotropy =    28.2341

    179  Bq   Isotropic =    13.1248   Anisotropy =    28.4760

    180  Bq   Isotropic =    13.1468   Anisotropy =    28.7966

    181  Bq   Isotropic =    17.9862   Anisotropy =    30.5305

    182  Bq   Isotropic =    17.8096   Anisotropy =    29.8691

    183  Bq   Isotropic =    17.5397   Anisotropy =    28.5568

    184  Bq   Isotropic =    17.5516   Anisotropy =    27.9189

    185  Bq   Isotropic =    17.7988   Anisotropy =    28.0209

    186  Bq   Isotropic =    18.1227   Anisotropy =    28.1424

    187  Bq   Isotropic =    19.5128   Anisotropy =    28.5113

    188  Bq   Isotropic =    20.0369   Anisotropy =    29.1585

    189  Bq   Isotropic =    19.8832   Anisotropy =    29.7978

    190  Bq   Isotropic =    19.2643   Anisotropy =    30.8094

    191  Bq   Isotropic =    19.2700   Anisotropy =    31.0063

    192  Bq   Isotropic =    19.2643   Anisotropy =    30.8094

    193  Bq   Isotropic =    19.8832   Anisotropy =    29.7978

    194  Bq   Isotropic =    20.0369   Anisotropy =    29.1585

    195  Bq   Isotropic =    19.5128   Anisotropy =    28.5113

    196  Bq   Isotropic =    18.1227   Anisotropy =    28.1424

    197  Bq   Isotropic =    17.7988   Anisotropy =    28.0209

    198  Bq   Isotropic =    17.5516   Anisotropy =    27.9189

    199  Bq   Isotropic =    17.5397   Anisotropy =    28.5568

    200  Bq   Isotropic =    17.8096   Anisotropy =    29.8691

    201  Bq   Isotropic =    17.9862   Anisotropy =    30.5305

    202  Bq   Isotropic =    17.8096   Anisotropy =    29.8691

    203  Bq   Isotropic =    17.5397   Anisotropy =    28.5568

    204  Bq   Isotropic =    17.5516   Anisotropy =    27.9189

    205  Bq   Isotropic =    17.7988   Anisotropy =    28.0209

    206  Bq   Isotropic =    18.1227   Anisotropy =    28.1424

    207  Bq   Isotropic =    19.5128   Anisotropy =    28.5113

    208  Bq   Isotropic =    20.0369   Anisotropy =    29.1585

    209  Bq   Isotropic =    19.8832   Anisotropy =    29.7978

    210  Bq   Isotropic =    19.2643   Anisotropy =    30.8094

    211  Bq   Isotropic =    19.2700   Anisotropy =    31.0063

    212  Bq   Isotropic =    19.2643   Anisotropy =    30.8094

    213  Bq   Isotropic =    19.8832   Anisotropy =    29.7978

    214  Bq   Isotropic =    20.0369   Anisotropy =    29.1585

    215  Bq   Isotropic =    19.5128   Anisotropy =    28.5113

    216  Bq   Isotropic =    18.1227   Anisotropy =    28.1424

    217  Bq   Isotropic =    17.7988   Anisotropy =    28.0209

    218  Bq   Isotropic =    17.5516   Anisotropy =    27.9189

 Alpha  occ. eigenvalues --  -10.19431 -10.19392 -10.18644 -10.18642 -10.18630
 Alpha  occ. eigenvalues --  -10.18629 -10.18587 -10.18586 -10.18558 -10.18557
 Alpha  occ. eigenvalues --   -0.87642  -0.82396  -0.77723  -0.74528  -0.72264
 Alpha  occ. eigenvalues --   -0.63036  -0.61582  -0.59896  -0.51712  -0.51517
 Alpha  occ. eigenvalues --   -0.49821  -0.45248  -0.44631  -0.42336  -0.42227
 Alpha  occ. eigenvalues --   -0.40585  -0.39514  -0.37600  -0.34706  -0.33848
 Alpha  occ. eigenvalues --   -0.33373  -0.29305  -0.25287  -0.22507
 Alpha virt. eigenvalues --   -0.05458  -0.02654   0.00197   0.00335   0.01199
 Alpha virt. eigenvalues --    0.01293   0.03468   0.03498   0.05319   0.05517
 Alpha virt. eigenvalues --    0.05641   0.05827   0.06828   0.07191   0.07956

 Mulliken charges:
               1
     1  C   -0.271259
     2  C   -0.271259
     3  C   -0.081784
     4  C    0.204484
     5  C   -0.081784
     6  C   -0.271259
     7  C   -0.271259
     8  C   -0.081784
     9  C    0.204484
    10  C   -0.081784
    11  H    0.128962
    12  H    0.128962
    13  H    0.121839
    14  H    0.121839
    15  H    0.128962
    16  H    0.128962
    17  H    0.121839
    18  H    0.121839
    19  Bq   0.000000
    20  Bq   0.000000
    21  Bq   0.000000
    22  Bq   0.000000
    23  Bq   0.000000
    24  Bq   0.000000
    25  Bq   0.000000
    26  Bq   0.000000
    27  Bq   0.000000
    28  Bq   0.000000
    29  Bq   0.000000
    30  Bq   0.000000
    31  Bq   0.000000
    32  Bq   0.000000
    33  Bq   0.000000
    34  Bq   0.000000
    35  Bq   0.000000
    36  Bq   0.000000
    37  Bq   0.000000
    38  Bq   0.000000
    39  Bq   0.000000
    40  Bq   0.000000
    41  Bq   0.000000
    42  Bq   0.000000
    43  Bq   0.000000
    44  Bq   0.000000
    45  Bq   0.000000
    46  Bq   0.000000
    47  Bq   0.000000
    48  Bq   0.000000
    49  Bq   0.000000
    50  Bq   0.000000
    51  Bq   0.000000
    52  Bq   0.000000
    53  Bq   0.000000
    54  Bq   0.000000
    55  Bq   0.000000
    56  Bq   0.000000
    57  Bq   0.000000
    58  Bq   0.000000
    59  Bq   0.000000
    60  Bq   0.000000
    61  Bq   0.000000
    62  Bq   0.000000
    63  Bq   0.000000
    64  Bq   0.000000
    65  Bq   0.000000
    66  Bq   0.000000
    67  Bq   0.000000
    68  Bq   0.000000
    69  Bq   0.000000
    70  Bq   0.000000
    71  Bq   0.000000
    72  Bq   0.000000
    73  Bq   0.000000
    74  Bq   0.000000
    75  Bq   0.000000
    76  Bq   0.000000
    77  Bq   0.000000
    78  Bq   0.000000
    79  Bq   0.000000
    80  Bq   0.000000
    81  Bq   0.000000
    82  Bq   0.000000
    83  Bq   0.000000
    84  Bq   0.000000
    85  Bq   0.000000
    86  Bq   0.000000
    87  Bq   0.000000
    88  Bq   0.000000
    89  Bq   0.000000
    90  Bq   0.000000
    91  Bq   0.000000
    92  Bq   0.000000
    93  Bq   0.000000
    94  Bq   0.000000
    95  Bq   0.000000
    96  Bq   0.000000
    97  Bq   0.000000
    98  Bq   0.000000
    99  Bq   0.000000
   100  Bq   0.000000
   101  Bq   0.000000
   102  Bq   0.000000
   103  Bq   0.000000
   104  Bq   0.000000
   105  Bq   0.000000
   106  Bq   0.000000
   107  Bq   0.000000
   108  Bq   0.000000
   109  Bq   0.000000
   110  Bq   0.000000
   111  Bq   0.000000
   112  Bq   0.000000
   113  Bq   0.000000
   114  Bq   0.000000
   115  Bq   0.000000
   116  Bq   0.000000
   117  Bq   0.000000
   118  Bq   0.000000
   119  Bq   0.000000
   120  Bq   0.000000
   121  Bq   0.000000
   122  Bq   0.000000
   123  Bq   0.000000
   124  Bq   0.000000
   125  Bq   0.000000
   126  Bq   0.000000
   127  Bq   0.000000
   128  Bq   0.000000
   129  Bq   0.000000
   130  Bq   0.000000
   131  Bq   0.000000
   132  Bq   0.000000
   133  Bq   0.000000
   134  Bq   0.000000
   135  Bq   0.000000
   136  Bq   0.000000
   137  Bq   0.000000
   138  Bq   0.000000
   139  Bq   0.000000
   140  Bq   0.000000
   141  Bq   0.000000
   142  Bq   0.000000
   143  Bq   0.000000
   144  Bq   0.000000
   145  Bq   0.000000
   146  Bq   0.000000
   147  Bq   0.000000
   148  Bq   0.000000
   149  Bq   0.000000
   150  Bq   0.000000
   151  Bq   0.000000
   152  Bq   0.000000
   153  Bq   0.000000
   154  Bq   0.000000
   155  Bq   0.000000
   156  Bq   0.000000
   157  Bq   0.000000
   158  Bq   0.000000
   159  Bq   0.000000
   160  Bq   0.000000
   161  Bq   0.000000
   162  Bq   0.000000
   163  Bq   0.000000
   164  Bq   0.000000
   165  Bq   0.000000
   166  Bq   0.000000
   167  Bq   0.000000
   168  Bq   0.000000
   169  Bq   0.000000
   170  Bq   0.000000
   171  Bq   0.000000
   172  Bq   0.000000
   173  Bq   0.000000
   174  Bq   0.000000
   175  Bq   0.000000
   176  Bq   0.000000
   177  Bq   0.000000
   178  Bq   0.000000
   179  Bq   0.000000
   180  Bq   0.000000
   181  Bq   0.000000
   182  Bq   0.000000
   183  Bq   0.000000
   184  Bq   0.000000
   185  Bq   0.000000
   186  Bq   0.000000
   187  Bq   0.000000
   188  Bq   0.000000
   189  Bq   0.000000
   190  Bq   0.000000
   191  Bq   0.000000
   192  Bq   0.000000
   193  Bq   0.000000
   194  Bq   0.000000
   195  Bq   0.000000
   196  Bq   0.000000
   197  Bq   0.000000
   198  Bq   0.000000
   199  Bq   0.000000
   200  Bq   0.000000
   201  Bq   0.000000
   202  Bq   0.000000
   203  Bq   0.000000
   204  Bq   0.000000
   205  Bq   0.000000
   206  Bq   0.000000
   207  Bq   0.000000
   208  Bq   0.000000
   209  Bq   0.000000
   210  Bq   0.000000
   211  Bq   0.000000
   212  Bq   0.000000
   213  Bq   0.000000
   214  Bq   0.000000
   215  Bq   0.000000
   216  Bq   0.000000
   217  Bq   0.000000
   218  Bq   0.000000
 Sum of Mulliken charges =   0.00000

 Dipole moment (field-independent basis, Debye):
    X=              0.0000    Y=              0.0000    Z=              0.0000  Tot=              0.0000
 Quadrupole moment (field-independent basis, Debye-Ang):
   XX=            -51.9618   YY=            -52.1216   ZZ=            -65.1252
   XY=              0.0000   XZ=              0.0000   YZ=              0.0000

 Normal termination of Gaussian 09 at Fri Sep 11 11:31:12 2020.
