 Gaussian 16, Revision A.03,
 Gaussian 16:  ES64L-G16RevA.03 25-Dec-2016

 ----------------------
 # rb3lyp/6-311+g** NMR
 ----------------------

 -----
 Title
 -----
 Symbolic Z-matrix:
 Charge =  0 Multiplicity = 1

                          Input orientation:
 ---------------------------------------------------------------------
 Center     Atomic      Atomic             Coordinates (Angstroms)
 Number     Number       Type             X           Y           Z
 ---------------------------------------------------------------------
      1          6           0       -4.050056   -0.577186    0.813671
      2          1           0       -5.026380   -1.008273    1.002476
      3          6           0       -3.938155    0.661780    0.240088
      4          1           0       -4.825242    1.233889   -0.011130
      5          6           0       -2.676841    1.243325    0.005758
      6          6           0       -1.497412    0.505153    0.284825
      7          6           0       -1.650833   -0.733873    0.940403
      8          1           0       -0.771365   -1.273097    1.263375
      9          6           0       -2.889855   -1.262404    1.199431
     10          1           0       -2.968371   -2.212456    1.715268
     11          6           0       -2.577319    2.596370   -0.419293
     12          1           0       -3.487073    3.141224   -0.647406
     13          6           0       -1.374190    3.214790   -0.436403
     14          1           0       -1.299732    4.274202   -0.657814
     15          6           0       -0.171949    2.499409   -0.173459
     16          6           0       -0.204392    1.101844    0.019269
     17          6           0        1.051349    3.204256   -0.067622
     18          1           0        1.042734    4.281950   -0.189700
     19          6           0        2.194209    2.548745    0.257958
     20          1           0        3.116853    3.091285    0.433473
     21          6           0        2.221647    1.133656    0.293499
     22          6           0        1.048693    0.394553    0.030241
     23          6           0        3.448336    0.461463    0.557394
     24          1           0        4.309579    1.060605    0.833485
     25          6           0        3.542735   -0.885593    0.474946
     26          1           0        4.473147   -1.393970    0.703882
     27          6           0        2.449005   -1.647445   -0.019632
     28          6           0        1.215070   -1.005726   -0.301357
     29          6           0        0.253111   -1.743444   -1.021659
     30          1           0       -0.654136   -1.253505   -1.346285
     31          6           0        0.449419   -3.062860   -1.341378
     32          1           0       -0.308316   -3.594431   -1.905406
     33          6           0        1.625173   -3.720797   -0.955254
     34          1           0        1.767005   -4.768740   -1.192702
     35          6           0        2.610987   -3.014418   -0.318305
     36          1           0        3.552561   -3.490281   -0.064637
     37          0           0        1.433794   -2.365781   -0.659598
     38          0           0       -0.965883   -5.041763   -1.421616
     39          0           0       -1.020916   -4.559798   -1.300450
     40          0           0       -1.075948   -4.077833   -1.179284
     41          0           0       -1.130980   -3.595868   -1.058117
     42          0           0       -1.186013   -3.113903   -0.936951
     43          0           0       -1.241045   -2.631938   -0.815785
     44          0           0       -1.296078   -2.149973   -0.694619
     45          0           0       -1.351110   -1.668008   -0.573452
     46          0           0       -1.406142   -1.186043   -0.452286
     47          0           0       -1.461175   -0.704078   -0.331120
     48          0           0       -0.510639   -5.041763   -1.214849
     49          0           0       -0.565671   -4.559798   -1.093683
     50          0           0       -0.620704   -4.077833   -0.972517
     51          0           0       -0.675736   -3.595868   -0.851351
     52          0           0       -0.730768   -3.113903   -0.730184
     53          0           0       -0.785801   -2.631938   -0.609018
     54          0           0       -0.840833   -2.149973   -0.487852
     55          0           0       -0.895866   -1.668008   -0.366686
     56          0           0       -0.950898   -1.186043   -0.245519
     57          0           0       -1.005930   -0.704078   -0.124353
     58          0           0       -0.055395   -5.041763   -1.008082
     59          0           0       -0.110427   -4.559798   -0.886916
     60          0           0       -0.165459   -4.077833   -0.765750
     61          0           0       -0.220492   -3.595868   -0.644584
     62          0           0       -0.275524   -3.113903   -0.523417
     63          0           0       -0.330556   -2.631938   -0.402251
     64          0           0       -0.385589   -2.149973   -0.281085
     65          0           0       -0.440621   -1.668008   -0.159919
     66          0           0       -0.495654   -1.186043   -0.038752
     67          0           0       -0.550686   -0.704078    0.082414
     68          0           0        0.399850   -5.041763   -0.801315
     69          0           0        0.344817   -4.559798   -0.680149
     70          0           0        0.289785   -4.077833   -0.558983
     71          0           0        0.234753   -3.595868   -0.437817
     72          0           0        0.179720   -3.113903   -0.316650
     73          0           0        0.124688   -2.631938   -0.195484
     74          0           0        0.069656   -2.149973   -0.074318
     75          0           0        0.014623   -1.668008    0.046848
     76          0           0       -0.040409   -1.186043    0.168015
     77          0           0       -0.095442   -0.704078    0.289181
     78          0           0        0.855094   -5.041763   -0.594549
     79          0           0        0.800062   -4.559798   -0.473382
     80          0           0        0.745029   -4.077833   -0.352216
     81          0           0        0.689997   -3.595868   -0.231050
     82          0           0        0.634965   -3.113903   -0.109883
     83          0           0        0.579932   -2.631938    0.011283
     84          0           0        0.524900   -2.149973    0.132449
     85          0           0        0.469868   -1.668008    0.253615
     86          0           0        0.414835   -1.186043    0.374782
     87          0           0        0.359803   -0.704078    0.495948
     88          0           0        1.310339   -5.041763   -0.387782
     89          0           0        1.255306   -4.559798   -0.266615
     90          0           0        1.200274   -4.077833   -0.145449
     91          0           0        1.145241   -3.595868   -0.024283
     92          0           0        1.090209   -3.113903    0.096883
     93          0           0        1.035177   -2.631938    0.218050
     94          0           0        0.980144   -2.149973    0.339216
     95          0           0        0.925112   -1.668008    0.460382
     96          0           0        0.870080   -1.186043    0.581548
     97          0           0        0.815047   -0.704078    0.702715
     98          0           0        1.765583   -5.041763   -0.181015
     99          0           0        1.710551   -4.559798   -0.059848
    100          0           0        1.655518   -4.077833    0.061318
    101          0           0        1.600486   -3.595868    0.182484
    102          0           0        1.545453   -3.113903    0.303650
    103          0           0        1.490421   -2.631938    0.424817
    104          0           0        1.435389   -2.149973    0.545983
    105          0           0        1.380356   -1.668008    0.667149
    106          0           0        1.325324   -1.186043    0.788315
    107          0           0        1.270292   -0.704078    0.909482
    108          0           0        2.220827   -5.041763    0.025752
    109          0           0        2.165795   -4.559798    0.146919
    110          0           0        2.110763   -4.077833    0.268085
    111          0           0        2.055730   -3.595868    0.389251
    112          0           0        2.000698   -3.113903    0.510417
    113          0           0        1.945665   -2.631938    0.631584
    114          0           0        1.890633   -2.149973    0.752750
    115          0           0        1.835601   -1.668008    0.873916
    116          0           0        1.780568   -1.186043    0.995082
    117          0           0        1.725536   -0.704078    1.116249
    118          0           0        2.676072   -5.041763    0.232519
    119          0           0        2.621039   -4.559798    0.353686
    120          0           0        2.566007   -4.077833    0.474852
    121          0           0        2.510975   -3.595868    0.596018
    122          0           0        2.455942   -3.113903    0.717184
    123          0           0        2.400910   -2.631938    0.838351
    124          0           0        2.345877   -2.149973    0.959517
    125          0           0        2.290845   -1.668008    1.080683
    126          0           0        2.235813   -1.186043    1.201849
    127          0           0        2.180780   -0.704078    1.323016
    128          0           0        3.131316   -5.041763    0.439286
    129          0           0        3.076284   -4.559798    0.560452
    130          0           0        3.021251   -4.077833    0.681619
    131          0           0        2.966219   -3.595868    0.802785
    132          0           0        2.911187   -3.113903    0.923951
    133          0           0        2.856154   -2.631938    1.045117
    134          0           0        2.801122   -2.149973    1.166284
    135          0           0        2.746089   -1.668008    1.287450
    136          0           0        2.691057   -1.186043    1.408616
    137          0           0        2.636025   -0.704078    1.529782
 ---------------------------------------------------------------------

 SCF Done:  E(RB3LYP) =  -847.003283891     A.U. after   15 cycles

      1  C    Isotropic =    53.1700   Anisotropy =   178.4458

      2  H    Isotropic =    24.3249   Anisotropy =     5.0184

      3  C    Isotropic =    51.5990   Anisotropy =   155.8040

      4  H    Isotropic =    23.7953   Anisotropy =     7.2788

      5  C    Isotropic =    46.3293   Anisotropy =   208.7938

      6  C    Isotropic =    48.1539   Anisotropy =   197.7355

      7  C    Isotropic =    49.2652   Anisotropy =   180.1198

      8  H    Isotropic =    23.1106   Anisotropy =    13.2879

      9  C    Isotropic =    55.3790   Anisotropy =   174.7214

     10  H    Isotropic =    24.5657   Anisotropy =     7.2078

     11  C    Isotropic =    51.6147   Anisotropy =   151.0090

     12  H    Isotropic =    23.8484   Anisotropy =     7.2776

     13  C    Isotropic =    52.9284   Anisotropy =   147.0362

     14  H    Isotropic =    23.9442   Anisotropy =     7.5024

     15  C    Isotropic =    47.0832   Anisotropy =   203.5172

     16  C    Isotropic =    51.6831   Anisotropy =   188.9362

     17  C    Isotropic =    51.8568   Anisotropy =   148.5198

     18  H    Isotropic =    23.8871   Anisotropy =     7.6762

     19  C    Isotropic =    51.7663   Anisotropy =   148.6842

     20  H    Isotropic =    23.9375   Anisotropy =     7.6244

     21  C    Isotropic =    47.2053   Anisotropy =   202.2944

     22  C    Isotropic =    51.6373   Anisotropy =   188.7174

     23  C    Isotropic =    52.7485   Anisotropy =   147.3596

     24  H    Isotropic =    23.9643   Anisotropy =     7.5607

     25  C    Isotropic =    51.5471   Anisotropy =   151.4815

     26  H    Isotropic =    23.9495   Anisotropy =     7.2423

     27  C    Isotropic =    46.4205   Anisotropy =   208.7250

     28  C    Isotropic =    47.8721   Anisotropy =   197.7655

     29  C    Isotropic =    49.4074   Anisotropy =   179.8282

     30  H    Isotropic =    23.1375   Anisotropy =    13.4089

     31  C    Isotropic =    55.2619   Anisotropy =   175.0623

     32  H    Isotropic =    24.5925   Anisotropy =     7.2047

     33  C    Isotropic =    53.5116   Anisotropy =   178.2180

     34  H    Isotropic =    24.3116   Anisotropy =     4.9117

     35  C    Isotropic =    51.3371   Anisotropy =   156.3894

     36  H    Isotropic =    23.8592   Anisotropy =     7.1834

     37  Bq   Isotropic =     8.0886   Anisotropy =     6.3800

     38  Bq   Isotropic =    -0.5776   Anisotropy =     6.5821

     39  Bq   Isotropic =    -0.3570   Anisotropy =     8.3493

     40  Bq   Isotropic =     0.2167   Anisotropy =     9.6443

     41  Bq   Isotropic =     0.5343   Anisotropy =    10.0089

     42  Bq   Isotropic =     0.3053   Anisotropy =    10.2108

     43  Bq   Isotropic =     0.3050   Anisotropy =    11.0237

     44  Bq   Isotropic =     0.8194   Anisotropy =    13.5518

     45  Bq   Isotropic =     1.4342   Anisotropy =    19.9361

     46  Bq   Isotropic =     2.4751   Anisotropy =    26.8828

     47  Bq   Isotropic =     6.2005   Anisotropy =    28.9121

     48  Bq   Isotropic =    -0.6434   Anisotropy =     7.7523

     49  Bq   Isotropic =    -0.0963   Anisotropy =    10.0581

     50  Bq   Isotropic =     1.5414   Anisotropy =    11.8916

     51  Bq   Isotropic =     3.2142   Anisotropy =    12.8727

     52  Bq   Isotropic =     3.4193   Anisotropy =    14.3248

     53  Bq   Isotropic =     3.3949   Anisotropy =    16.3893

     54  Bq   Isotropic =     3.4825   Anisotropy =    18.7728

     55  Bq   Isotropic =     2.0769   Anisotropy =    24.6738

     56  Bq   Isotropic =    -0.2334   Anisotropy =    29.8597

     57  Bq   Isotropic =     0.3294   Anisotropy =    28.8324

     58  Bq   Isotropic =    -0.6720   Anisotropy =     8.7644

     59  Bq   Isotropic =     0.1764   Anisotropy =    11.3523

     60  Bq   Isotropic =     3.1629   Anisotropy =    13.8101

     61  Bq   Isotropic =     7.8755   Anisotropy =    16.7659

     62  Bq   Isotropic =    10.6003   Anisotropy =    20.6245

     63  Bq   Isotropic =    11.1515   Anisotropy =    23.4480

     64  Bq   Isotropic =     9.9510   Anisotropy =    25.2594

     65  Bq   Isotropic =     4.5723   Anisotropy =    27.6181

     66  Bq   Isotropic =    -2.0083   Anisotropy =    29.2516

     67  Bq   Isotropic =    -4.9678   Anisotropy =    26.2700

     68  Bq   Isotropic =    -0.3503   Anisotropy =    10.1107

     69  Bq   Isotropic =     1.1014   Anisotropy =    13.0698

     70  Bq   Isotropic =     5.7066   Anisotropy =    17.3757

     71  Bq   Isotropic =    12.5592   Anisotropy =    23.3286

     72  Bq   Isotropic =    15.4375   Anisotropy =    27.8285

     73  Bq   Isotropic =    15.2947   Anisotropy =    28.9521

     74  Bq   Isotropic =    14.1130   Anisotropy =    29.5602

     75  Bq   Isotropic =     8.3441   Anisotropy =    29.6072

     76  Bq   Isotropic =    -0.4826   Anisotropy =    28.4612

     77  Bq   Isotropic =    -5.3755   Anisotropy =    24.8815

     78  Bq   Isotropic =     0.8916   Anisotropy =    11.8203

     79  Bq   Isotropic =     3.7291   Anisotropy =    14.1038

     80  Bq   Isotropic =     9.8548   Anisotropy =    20.1646

     81  Bq   Isotropic =    14.9078   Anisotropy =    27.4706

     82  Bq   Isotropic =    13.2704   Anisotropy =    28.3319

     83  Bq   Isotropic =    11.3194   Anisotropy =    26.5342

     84  Bq   Isotropic =    11.8240   Anisotropy =    27.0396

     85  Bq   Isotropic =    11.3155   Anisotropy =    27.3107

     86  Bq   Isotropic =     5.1903   Anisotropy =    23.9585

     87  Bq   Isotropic =    -0.2815   Anisotropy =    22.4233

     88  Bq   Isotropic =     2.2547   Anisotropy =    12.8755

     89  Bq   Isotropic =     6.3718   Anisotropy =    14.4823

     90  Bq   Isotropic =    13.0946   Anisotropy =    21.3309

     91  Bq   Isotropic =    15.8877   Anisotropy =    28.3917

     92  Bq   Isotropic =    11.6078   Anisotropy =    26.7771

     93  Bq   Isotropic =     8.8347   Anisotropy =    24.1275

     94  Bq   Isotropic =    10.0232   Anisotropy =    25.5433

     95  Bq   Isotropic =    13.3870   Anisotropy =    28.4625

     96  Bq   Isotropic =    12.1141   Anisotropy =    25.0286

     97  Bq   Isotropic =     7.8310   Anisotropy =    19.9031

     98  Bq   Isotropic =     1.3811   Anisotropy =    12.2290

     99  Bq   Isotropic =     4.5698   Anisotropy =    14.1884

    100  Bq   Isotropic =    11.0449   Anisotropy =    20.1791

    101  Bq   Isotropic =    16.0681   Anisotropy =    26.6561

    102  Bq   Isotropic =    13.3376   Anisotropy =    26.9058

    103  Bq   Isotropic =    10.4508   Anisotropy =    25.6457

    104  Bq   Isotropic =    11.7255   Anisotropy =    27.7033

    105  Bq   Isotropic =    14.9992   Anisotropy =    31.7222

    106  Bq   Isotropic =    13.2496   Anisotropy =    28.1737

    107  Bq   Isotropic =     9.3872   Anisotropy =    21.3925

    108  Bq   Isotropic =    -0.1414   Anisotropy =    10.7896

    109  Bq   Isotropic =     1.4091   Anisotropy =    13.7914

    110  Bq   Isotropic =     6.1799   Anisotropy =    17.9534

    111  Bq   Isotropic =    13.0919   Anisotropy =    21.9144

    112  Bq   Isotropic =    14.7330   Anisotropy =    24.9731

    113  Bq   Isotropic =    13.2144   Anisotropy =    25.5615

    114  Bq   Isotropic =    13.9530   Anisotropy =    26.8627

    115  Bq   Isotropic =    14.7290   Anisotropy =    30.1191

    116  Bq   Isotropic =    11.0215   Anisotropy =    26.9721

    117  Bq   Isotropic =     7.6243   Anisotropy =    21.5992

    118  Bq   Isotropic =    -0.7389   Anisotropy =     9.2469

    119  Bq   Isotropic =    -0.0284   Anisotropy =    12.0075

    120  Bq   Isotropic =     2.8192   Anisotropy =    14.3055

    121  Bq   Isotropic =     7.6607   Anisotropy =    15.5388

    122  Bq   Isotropic =     9.6388   Anisotropy =    17.4113

    123  Bq   Isotropic =     8.9255   Anisotropy =    18.2386

    124  Bq   Isotropic =     9.7760   Anisotropy =    19.3376

    125  Bq   Isotropic =    11.3916   Anisotropy =    24.0015

    126  Bq   Isotropic =     9.8025   Anisotropy =    25.0059

    127  Bq   Isotropic =     7.6128   Anisotropy =    22.2200

    128  Bq   Isotropic =    -0.8326   Anisotropy =     7.9722

    129  Bq   Isotropic =    -0.4522   Anisotropy =    10.4943

    130  Bq   Isotropic =     1.1650   Anisotropy =    12.5435

    131  Bq   Isotropic =     3.2163   Anisotropy =    12.5953

    132  Bq   Isotropic =     2.9772   Anisotropy =    11.9801

    133  Bq   Isotropic =     2.0211   Anisotropy =    12.9695

    134  Bq   Isotropic =     3.2952   Anisotropy =    14.7120

    135  Bq   Isotropic =     6.9892   Anisotropy =    19.4446

    136  Bq   Isotropic =     9.2013   Anisotropy =    23.5300

    137  Bq   Isotropic =     8.7579   Anisotropy =    23.4865

 Alpha  occ. eigenvalues --  -10.19519 -10.19478 -10.19029 -10.19029 -10.18896
 Alpha  occ. eigenvalues --  -10.18895 -10.18706 -10.18705 -10.17975 -10.17938
 Alpha  occ. eigenvalues --  -10.17937 -10.17904 -10.17858 -10.17858 -10.17744
 Alpha  occ. eigenvalues --  -10.17743 -10.17670 -10.17670 -10.17548 -10.17548
 Alpha  occ. eigenvalues --  -10.17417 -10.17416  -0.90320  -0.88119  -0.85937
 Alpha  occ. eigenvalues --   -0.83160  -0.80702  -0.79527  -0.76956  -0.75590
 Alpha  occ. eigenvalues --   -0.74411  -0.72712  -0.71872  -0.64912  -0.64545
 Alpha  occ. eigenvalues --   -0.62214  -0.61768  -0.61707  -0.58417  -0.55988
 Alpha  occ. eigenvalues --   -0.53829  -0.53378  -0.50936  -0.50526  -0.49905
 Alpha  occ. eigenvalues --   -0.47316  -0.47011  -0.45836  -0.44023  -0.43956
 Alpha  occ. eigenvalues --   -0.43861  -0.43232  -0.42654  -0.42235  -0.41022
 Alpha  occ. eigenvalues --   -0.40605  -0.39905  -0.39348  -0.37595  -0.37171
 Alpha  occ. eigenvalues --   -0.36929  -0.35577  -0.35098  -0.33983  -0.33391
 Alpha  occ. eigenvalues --   -0.32930  -0.30649  -0.29657  -0.28532  -0.26104
 Alpha  occ. eigenvalues --   -0.23798  -0.21944  -0.21480
 Alpha virt. eigenvalues --   -0.06190  -0.06048  -0.03588  -0.01474   0.00045
 Alpha virt. eigenvalues --    0.00403   0.00776   0.00822   0.01789   0.01908
 Alpha virt. eigenvalues --    0.02260   0.03054   0.03115   0.03427   0.03970

 Mulliken charges:
               1
     1  C   -0.379011
     2  H    0.123756
     3  C    0.054362
     4  H    0.115562
     5  C    0.447723
     6  C    0.063661
     7  C   -0.484065
     8  H    0.149708
     9  C   -0.262110
    10  H    0.122290
    11  C   -0.321452
    12  H    0.116208
    13  C   -0.234569
    14  H    0.116516
    15  C    0.651925
    16  C    0.037060
    17  C   -0.434569
    18  H    0.117448
    19  C   -0.434668
    20  H    0.117446
    21  C    0.651883
    22  C    0.036499
    23  C   -0.234337
    24  H    0.116514
    25  C   -0.321384
    26  H    0.116205
    27  C    0.447922
    28  C    0.063287
    29  C   -0.484078
    30  H    0.149729
    31  C   -0.261748
    32  H    0.122280
    33  C   -0.379719
    34  H    0.123755
    35  C    0.054416
    36  H    0.115557
    37  Bq   0.000000
    38  Bq   0.000000
    39  Bq   0.000000
    40  Bq   0.000000
    41  Bq   0.000000
    42  Bq   0.000000
    43  Bq   0.000000
    44  Bq   0.000000
    45  Bq   0.000000
    46  Bq   0.000000
    47  Bq   0.000000
    48  Bq   0.000000
    49  Bq   0.000000
    50  Bq   0.000000
    51  Bq   0.000000
    52  Bq   0.000000
    53  Bq   0.000000
    54  Bq   0.000000
    55  Bq   0.000000
    56  Bq   0.000000
    57  Bq   0.000000
    58  Bq   0.000000
    59  Bq   0.000000
    60  Bq   0.000000
    61  Bq   0.000000
    62  Bq   0.000000
    63  Bq   0.000000
    64  Bq   0.000000
    65  Bq   0.000000
    66  Bq   0.000000
    67  Bq   0.000000
    68  Bq   0.000000
    69  Bq   0.000000
    70  Bq   0.000000
    71  Bq   0.000000
    72  Bq   0.000000
    73  Bq   0.000000
    74  Bq   0.000000
    75  Bq   0.000000
    76  Bq   0.000000
    77  Bq   0.000000
    78  Bq   0.000000
    79  Bq   0.000000
    80  Bq   0.000000
    81  Bq   0.000000
    82  Bq   0.000000
    83  Bq   0.000000
    84  Bq   0.000000
    85  Bq   0.000000
    86  Bq   0.000000
    87  Bq   0.000000
    88  Bq   0.000000
    89  Bq   0.000000
    90  Bq   0.000000
    91  Bq   0.000000
    92  Bq   0.000000
    93  Bq   0.000000
    94  Bq   0.000000
    95  Bq   0.000000
    96  Bq   0.000000
    97  Bq   0.000000
    98  Bq   0.000000
    99  Bq   0.000000
   100  Bq   0.000000
   101  Bq   0.000000
   102  Bq   0.000000
   103  Bq   0.000000
   104  Bq   0.000000
   105  Bq   0.000000
   106  Bq   0.000000
   107  Bq   0.000000
   108  Bq   0.000000
   109  Bq   0.000000
   110  Bq   0.000000
   111  Bq   0.000000
   112  Bq   0.000000
   113  Bq   0.000000
   114  Bq   0.000000
   115  Bq   0.000000
   116  Bq   0.000000
   117  Bq   0.000000
   118  Bq   0.000000
   119  Bq   0.000000
   120  Bq   0.000000
   121  Bq   0.000000
   122  Bq   0.000000
   123  Bq   0.000000
   124  Bq   0.000000
   125  Bq   0.000000
   126  Bq   0.000000
   127  Bq   0.000000
   128  Bq   0.000000
   129  Bq   0.000000
   130  Bq   0.000000
   131  Bq   0.000000
   132  Bq   0.000000
   133  Bq   0.000000
   134  Bq   0.000000
   135  Bq   0.000000
   136  Bq   0.000000
   137  Bq   0.000000
 Sum of Mulliken charges =  -0.00000

 Dipole moment (field-independent basis, Debye):
    X=              0.0480    Y=              0.0854    Z=              0.0027  Tot=              0.0981
 Quadrupole moment (field-independent basis, Debye-Ang):
   XX=           -113.7065   YY=           -113.9465   ZZ=           -133.2659
   XY=             -0.3840   XZ=              3.2088   YZ=             -1.1827

 Normal termination of Gaussian 16 at Wed Aug  5 22:35:08 2020.
