 Gaussian 09, Revision D.01,
 Gaussian 09:  ES64L-G09RevD.01 24-Apr-2013

 ----------------------------------------------------
 #P rb3lyp/6-311+g** NMR Guess=Read geom=connectivity
 ----------------------------------------------------

 -----
 Title
 -----
 Symbolic Z-matrix:
 Charge =  0 Multiplicity = 1

                          Input orientation:
 ---------------------------------------------------------------------
 Center     Atomic      Atomic             Coordinates (Angstroms)
 Number     Number       Type             X           Y           Z
 ---------------------------------------------------------------------
      1          6           0        0.653241    3.257859   -0.202510
      2          6           0       -0.653243    3.257860    0.202510
      3          6           0        1.372495    2.032956   -0.320807
      4          6           0       -1.372495    2.032956    0.320807
      5          6           0        0.722474    0.795666   -0.050388
      6          6           0       -0.722474    0.795667    0.050387
      7          6           0        2.760385    2.053927   -0.674268
      8          6           0        3.508866    0.913916   -0.671362
      9          6           0        2.955226   -0.309622   -0.177479
     10          6           0        1.574722   -0.361114    0.197094
     11          1           0        1.183427    4.195740   -0.384599
     12          1           0       -1.183429    4.195740    0.384599
     13          1           0        3.206283    3.012423   -0.951392
     14          1           0        4.560023    0.932956   -0.969333
     15          6           0        3.783020   -1.443098    0.028309
     16          6           0        1.137427   -1.507533    0.912109
     17          6           0        1.973691   -2.584349    1.138062
     18          6           0        3.301853   -2.571588    0.661177
     19          1           0        4.825754   -1.391230   -0.295484
     20          1           0        0.124652   -1.532788    1.308472
     21          1           0        1.603586   -3.445682    1.698977
     22          1           0        3.952742   -3.433526    0.825134
     23          6           0       -3.508866    0.913915    0.671362
     24          6           0       -2.760386    2.053926    0.674268
     25          6           0       -2.955226   -0.309623    0.177479
     26          6           0       -1.574722   -0.361114   -0.197094
     27          6           0       -3.783020   -1.443099   -0.028309
     28          6           0       -3.301852   -2.571589   -0.661177
     29          6           0       -1.973690   -2.584349   -1.138061
     30          6           0       -1.137426   -1.507534   -0.912109
     31          1           0       -4.560022    0.932954    0.969334
     32          1           0       -3.206283    3.012421    0.951392
     33          1           0       -4.825754   -1.391232    0.295484
     34          1           0       -3.952741   -3.433528   -0.825134
     35          1           0       -1.603585   -3.445682   -1.698976
     36          1           0       -0.124652   -1.532788   -1.308471
     37          0           0       -2.103585   -3.445682   -2.565001
     38          0           0       -2.099307   -3.510945   -2.565001
     39          0           0       -2.086548   -3.575092   -2.565001
     40          0           0       -2.065525   -3.637024   -2.565001
     41          0           0       -2.036598   -3.695682   -2.565001
     42          0           0       -2.000262   -3.750063   -2.565001
     43          0           0       -1.957138   -3.799235   -2.565001
     44          0           0       -1.907966   -3.842359   -2.565001
     45          0           0       -1.853585   -3.878695   -2.565001
     46          0           0       -1.794927   -3.907622   -2.565001
     47          0           0       -1.732995   -3.928645   -2.565001
     48          0           0       -1.668848   -3.941404   -2.565001
     49          0           0       -1.603585   -3.945682   -2.565001
     50          0           0       -1.538322   -3.941404   -2.565001
     51          0           0       -1.474175   -3.928645   -2.565001
     52          0           0       -1.412243   -3.907622   -2.565001
     53          0           0       -1.353585   -3.878695   -2.565001
     54          0           0       -1.299204   -3.842359   -2.565001
     55          0           0       -1.250032   -3.799235   -2.565001
     56          0           0       -1.206908   -3.750063   -2.565001
     57          0           0       -1.170572   -3.695682   -2.565001
     58          0           0       -1.141645   -3.637024   -2.565001
     59          0           0       -1.120622   -3.575092   -2.565001
     60          0           0       -1.107863   -3.510945   -2.565001
     61          0           0       -1.220902   -3.445682   -2.622856
     62          0           0       -1.224175   -3.395732   -2.622856
     63          0           0       -1.233941   -3.346636   -2.622856
     64          0           0       -1.250032   -3.299235   -2.622856
     65          0           0       -1.272171   -3.254340   -2.622856
     66          0           0       -1.299982   -3.212719   -2.622856
     67          0           0       -1.332987   -3.175084   -2.622856
     68          0           0       -1.370622   -3.142079   -2.622856
     69          0           0       -1.412243   -3.114268   -2.622856
     70          0           0       -1.457138   -3.092129   -2.622856
     71          0           0       -1.504539   -3.076038   -2.622856
     72          0           0       -1.553635   -3.066272   -2.622856
     73          0           0       -1.603585   -3.062999   -2.622856
     74          0           0       -1.653535   -3.066272   -2.622856
     75          0           0       -1.702631   -3.076038   -2.622856
     76          0           0       -1.750032   -3.092129   -2.622856
     77          0           0       -1.794927   -3.114268   -2.622856
     78          0           0       -1.836548   -3.142079   -2.622856
     79          0           0       -1.874183   -3.175084   -2.622856
     80          0           0       -1.907188   -3.212719   -2.622856
     81          0           0       -1.934999   -3.254340   -2.622856
     82          0           0       -1.957138   -3.299235   -2.622856
     83          0           0       -1.973229   -3.346636   -2.622856
     84          0           0       -1.982995   -3.395732   -2.622856
     85          0           0       -1.986268   -3.445682   -2.622856
     86          0           0       -1.982995   -3.495632   -2.622856
     87          0           0       -1.973229   -3.544728   -2.622856
     88          0           0       -1.957138   -3.592129   -2.622856
     89          0           0       -1.934999   -3.637024   -2.622856
     90          0           0       -1.907188   -3.678645   -2.622856
     91          0           0       -1.874183   -3.716280   -2.622856
     92          0           0       -1.836548   -3.749285   -2.622856
     93          0           0       -1.794927   -3.777096   -2.622856
     94          0           0       -1.750032   -3.799235   -2.622856
     95          0           0       -1.702631   -3.815326   -2.622856
     96          0           0       -1.653535   -3.825092   -2.622856
     97          0           0       -1.603585   -3.828365   -2.622856
     98          0           0       -1.553635   -3.825092   -2.622856
     99          0           0       -1.504539   -3.815326   -2.622856
    100          0           0       -1.457138   -3.799235   -2.622856
    101          0           0       -1.412243   -3.777096   -2.622856
    102          0           0       -1.370622   -3.749285   -2.622856
    103          0           0       -1.332987   -3.716280   -2.622856
    104          0           0       -1.299982   -3.678645   -2.622856
    105          0           0       -1.272171   -3.637024   -2.622856
    106          0           0       -1.250032   -3.592129   -2.622856
    107          0           0       -1.233941   -3.544728   -2.622856
    108          0           0       -1.224175   -3.495632   -2.622856
    109          0           0       -1.344766   -3.445682   -2.664902
    110          0           0       -1.346980   -3.411899   -2.664902
    111          0           0       -1.353585   -3.378695   -2.664902
    112          0           0       -1.364467   -3.346636   -2.664902
    113          0           0       -1.379441   -3.316272   -2.664902
    114          0           0       -1.398250   -3.288123   -2.664902
    115          0           0       -1.420572   -3.262669   -2.664902
    116          0           0       -1.446026   -3.240347   -2.664902
    117          0           0       -1.474175   -3.221538   -2.664902
    118          0           0       -1.504539   -3.206564   -2.664902
    119          0           0       -1.536598   -3.195682   -2.664902
    120          0           0       -1.569802   -3.189077   -2.664902
    121          0           0       -1.603585   -3.186863   -2.664902
    122          0           0       -1.637368   -3.189077   -2.664902
    123          0           0       -1.670572   -3.195682   -2.664902
    124          0           0       -1.702631   -3.206564   -2.664902
    125          0           0       -1.732995   -3.221538   -2.664902
    126          0           0       -1.761144   -3.240347   -2.664902
    127          0           0       -1.786598   -3.262669   -2.664902
    128          0           0       -1.808920   -3.288123   -2.664902
    129          0           0       -1.827729   -3.316272   -2.664902
    130          0           0       -1.842703   -3.346636   -2.664902
    131          0           0       -1.853585   -3.378695   -2.664902
    132          0           0       -1.860190   -3.411899   -2.664902
    133          0           0       -1.862404   -3.445682   -2.664902
    134          0           0       -1.860190   -3.479465   -2.664902
    135          0           0       -1.853585   -3.512669   -2.664902
    136          0           0       -1.842703   -3.544728   -2.664902
    137          0           0       -1.827729   -3.575092   -2.664902
    138          0           0       -1.808920   -3.603241   -2.664902
    139          0           0       -1.786598   -3.628695   -2.664902
    140          0           0       -1.761144   -3.651017   -2.664902
    141          0           0       -1.732995   -3.669826   -2.664902
    142          0           0       -1.702631   -3.684800   -2.664902
    143          0           0       -1.670572   -3.695682   -2.664902
    144          0           0       -1.637368   -3.702287   -2.664902
    145          0           0       -1.603585   -3.704501   -2.664902
    146          0           0       -1.569802   -3.702287   -2.664902
    147          0           0       -1.536598   -3.695682   -2.664902
    148          0           0       -1.504539   -3.684800   -2.664902
    149          0           0       -1.474175   -3.669826   -2.664902
    150          0           0       -1.446026   -3.651017   -2.664902
    151          0           0       -1.420572   -3.628695   -2.664902
    152          0           0       -1.398250   -3.603241   -2.664902
    153          0           0       -1.379441   -3.575092   -2.664902
    154          0           0       -1.364467   -3.544728   -2.664902
    155          0           0       -1.353585   -3.512669   -2.664902
    156          0           0       -1.346980   -3.479465   -2.664902
    157          0           0       -1.473059   -3.445682   -2.690421
    158          0           0       -1.474175   -3.428645   -2.690421
    159          0           0       -1.477506   -3.411899   -2.690421
    160          0           0       -1.482995   -3.395732   -2.690421
    161          0           0       -1.490546   -3.380419   -2.690421
    162          0           0       -1.500032   -3.366223   -2.690421
    163          0           0       -1.511289   -3.353386   -2.690421
    164          0           0       -1.524126   -3.342129   -2.690421
    165          0           0       -1.538322   -3.332643   -2.690421
    166          0           0       -1.553635   -3.325092   -2.690421
    167          0           0       -1.569802   -3.319603   -2.690421
    168          0           0       -1.586548   -3.316272   -2.690421
    169          0           0       -1.603585   -3.315156   -2.690421
    170          0           0       -1.620622   -3.316272   -2.690421
    171          0           0       -1.637368   -3.319603   -2.690421
    172          0           0       -1.653535   -3.325092   -2.690421
    173          0           0       -1.668848   -3.332643   -2.690421
    174          0           0       -1.683044   -3.342129   -2.690421
    175          0           0       -1.695881   -3.353386   -2.690421
    176          0           0       -1.707138   -3.366223   -2.690421
    177          0           0       -1.716624   -3.380419   -2.690421
    178          0           0       -1.724175   -3.395732   -2.690421
    179          0           0       -1.729664   -3.411899   -2.690421
    180          0           0       -1.732995   -3.428645   -2.690421
    181          0           0       -1.734111   -3.445682   -2.690421
    182          0           0       -1.732995   -3.462719   -2.690421
    183          0           0       -1.729664   -3.479465   -2.690421
    184          0           0       -1.724175   -3.495632   -2.690421
    185          0           0       -1.716624   -3.510945   -2.690421
    186          0           0       -1.707138   -3.525141   -2.690421
    187          0           0       -1.695881   -3.537978   -2.690421
    188          0           0       -1.683044   -3.549235   -2.690421
    189          0           0       -1.668848   -3.558721   -2.690421
    190          0           0       -1.653535   -3.566272   -2.690421
    191          0           0       -1.637368   -3.571761   -2.690421
    192          0           0       -1.620622   -3.575092   -2.690421
    193          0           0       -1.603585   -3.576208   -2.690421
    194          0           0       -1.586548   -3.575092   -2.690421
    195          0           0       -1.569802   -3.571761   -2.690421
    196          0           0       -1.553635   -3.566272   -2.690421
    197          0           0       -1.538322   -3.558721   -2.690421
    198          0           0       -1.524126   -3.549235   -2.690421
    199          0           0       -1.511289   -3.537978   -2.690421
    200          0           0       -1.500032   -3.525141   -2.690421
    201          0           0       -1.490546   -3.510945   -2.690421
    202          0           0       -1.482995   -3.495632   -2.690421
    203          0           0       -1.477506   -3.479465   -2.690421
    204          0           0       -1.474175   -3.462719   -2.690421
    205          0           0       -0.124652   -1.532788   -0.308471
    206          0           0       -0.124652   -1.532788   -0.308471
    207          0           0       -0.124652   -1.532788   -0.308471
    208          0           0       -0.124652   -1.532788   -0.308471
    209          0           0       -0.124652   -1.532788   -0.308471
    210          0           0       -0.124652   -1.532788   -0.308471
    211          0           0       -0.124652   -1.532788   -0.308471
    212          0           0       -0.124652   -1.532788   -0.308471
    213          0           0       -0.124652   -1.532788   -0.308471
    214          0           0       -0.124652   -1.532788   -0.308471
    215          0           0       -0.124652   -1.532788   -0.308471
    216          0           0       -0.124652   -1.532788   -0.308471
    217          0           0       -0.124652   -1.532788   -0.308471
    218          0           0       -0.124652   -1.532788   -0.308471
    219          0           0       -0.124652   -1.532788   -0.308471
    220          0           0       -0.124652   -1.532788   -0.308471
    221          0           0       -0.124652   -1.532788   -0.308471
    222          0           0       -0.124652   -1.532788   -0.308471
    223          0           0       -0.124652   -1.532788   -0.308471
    224          0           0       -0.124652   -1.532788   -0.308471
    225          0           0       -0.124652   -1.532788   -0.308471
    226          0           0       -0.124652   -1.532788   -0.308471
    227          0           0       -0.124652   -1.532788   -0.308471
    228          0           0       -0.124652   -1.532788   -0.308471
    229          0           0       -0.124652   -1.532788   -0.308471
    230          0           0       -0.124652   -1.532788   -0.308471
    231          0           0       -0.124652   -1.532788   -0.308471
    232          0           0       -0.124652   -1.532788   -0.308471
    233          0           0       -0.124652   -1.532788   -0.308471
    234          0           0       -0.124652   -1.532788   -0.308471
    235          0           0       -0.124652   -1.532788   -0.308471
    236          0           0       -0.124652   -1.532788   -0.308471
 ---------------------------------------------------------------------

 SCF Done:  E(RB3LYP) =  -847.003738667     A.U. after    4 cycles

      1  C    Isotropic =    49.6861   Anisotropy =   149.7970

      2  C    Isotropic =    49.6861   Anisotropy =   149.7971

      3  C    Isotropic =    44.4899   Anisotropy =   204.7372

      4  C    Isotropic =    44.4899   Anisotropy =   204.7373

      5  C    Isotropic =    48.5420   Anisotropy =   189.5490

      6  C    Isotropic =    48.5421   Anisotropy =   189.5489

      7  C    Isotropic =    50.1907   Anisotropy =   149.2089

      8  C    Isotropic =    48.9362   Anisotropy =   152.4339

      9  C    Isotropic =    44.4204   Anisotropy =   209.3981

     10  C    Isotropic =    45.3894   Anisotropy =   198.3236

     11  H    Isotropic =    23.8179   Anisotropy =     7.5674

     12  H    Isotropic =    23.8179   Anisotropy =     7.5674

     13  H    Isotropic =    23.8548   Anisotropy =     7.5124

     14  H    Isotropic =    23.6863   Anisotropy =     7.7303

     15  C    Isotropic =    49.7377   Anisotropy =   157.1911

     16  C    Isotropic =    47.1103   Anisotropy =   181.9846

     17  C    Isotropic =    52.8129   Anisotropy =   174.6506

     18  C    Isotropic =    50.7514   Anisotropy =   178.3315

     19  H    Isotropic =    23.5746   Anisotropy =     7.2380

     20  H    Isotropic =    23.0450   Anisotropy =    13.2048

     21  H    Isotropic =    24.3352   Anisotropy =     7.2702

     22  H    Isotropic =    24.1067   Anisotropy =     5.0092

     23  C    Isotropic =    48.9363   Anisotropy =   152.4340

     24  C    Isotropic =    50.1908   Anisotropy =   149.2089

     25  C    Isotropic =    44.4204   Anisotropy =   209.3981

     26  C    Isotropic =    45.3892   Anisotropy =   198.3237

     27  C    Isotropic =    49.7377   Anisotropy =   157.1912

     28  C    Isotropic =    50.7514   Anisotropy =   178.3314

     29  C    Isotropic =    52.8130   Anisotropy =   174.6505

     30  C    Isotropic =    47.1104   Anisotropy =   181.9846

     31  H    Isotropic =    23.6863   Anisotropy =     7.7303

     32  H    Isotropic =    23.8548   Anisotropy =     7.5124

     33  H    Isotropic =    23.5746   Anisotropy =     7.2379

     34  H    Isotropic =    24.1067   Anisotropy =     5.0092

     35  H    Isotropic =    24.3353   Anisotropy =     7.2702

     36  H    Isotropic =    23.0450   Anisotropy =    13.2048

     37  Bq   Isotropic =     1.2109   Anisotropy =    12.6486

     38  Bq   Isotropic =     1.0230   Anisotropy =    12.4350

     39  Bq   Isotropic =     0.8572   Anisotropy =    12.2200

     40  Bq   Isotropic =     0.7141   Anisotropy =    12.0071

     41  Bq   Isotropic =     0.5928   Anisotropy =    11.7984

     42  Bq   Isotropic =     0.4916   Anisotropy =    11.5956

     43  Bq   Isotropic =     0.4086   Anisotropy =    11.3994

     44  Bq   Isotropic =     0.3417   Anisotropy =    11.2105

     45  Bq   Isotropic =     0.2888   Anisotropy =    11.0294

     46  Bq   Isotropic =     0.2482   Anisotropy =    10.8564

     47  Bq   Isotropic =     0.2185   Anisotropy =    10.6919

     48  Bq   Isotropic =     0.1982   Anisotropy =    10.5363

     49  Bq   Isotropic =     0.1865   Anisotropy =    10.3901

     50  Bq   Isotropic =     0.1825   Anisotropy =    10.2539

     51  Bq   Isotropic =     0.1852   Anisotropy =    10.1285

     52  Bq   Isotropic =     0.1943   Anisotropy =    10.0145

     53  Bq   Isotropic =     0.2090   Anisotropy =     9.9130

     54  Bq   Isotropic =     0.2291   Anisotropy =     9.8248

     55  Bq   Isotropic =     0.2541   Anisotropy =     9.7512

     56  Bq   Isotropic =     0.2840   Anisotropy =     9.6935

     57  Bq   Isotropic =     0.3189   Anisotropy =     9.6529

     58  Bq   Isotropic =     0.3589   Anisotropy =     9.6311

     59  Bq   Isotropic =     0.4048   Anisotropy =     9.6299

     60  Bq   Isotropic =     0.4575   Anisotropy =     9.6510

     61  Bq   Isotropic =     0.5984   Anisotropy =    10.0876

     62  Bq   Isotropic =     0.6617   Anisotropy =    10.1571

     63  Bq   Isotropic =     0.7339   Anisotropy =    10.2484

     64  Bq   Isotropic =     0.8159   Anisotropy =    10.3622

     65  Bq   Isotropic =     0.9084   Anisotropy =    10.4989

     66  Bq   Isotropic =     1.0118   Anisotropy =    10.6580

     67  Bq   Isotropic =     1.1256   Anisotropy =    10.8388

     68  Bq   Isotropic =     1.2485   Anisotropy =    11.0393

     69  Bq   Isotropic =     1.3781   Anisotropy =    11.2565

     70  Bq   Isotropic =     1.5103   Anisotropy =    11.4860

     71  Bq   Isotropic =     1.6402   Anisotropy =    11.7222

     72  Bq   Isotropic =     1.7615   Anisotropy =    11.9578

     73  Bq   Isotropic =     1.8675   Anisotropy =    12.1848

     74  Bq   Isotropic =     1.9517   Anisotropy =    12.3944

     75  Bq   Isotropic =     2.0082   Anisotropy =    12.5781

     76  Bq   Isotropic =     2.0329   Anisotropy =    12.7282

     77  Bq   Isotropic =     2.0238   Anisotropy =    12.8391

     78  Bq   Isotropic =     1.9812   Anisotropy =    12.9074

     79  Bq   Isotropic =     1.9078   Anisotropy =    12.9326

     80  Bq   Isotropic =     1.8082   Anisotropy =    12.9164

     81  Bq   Isotropic =     1.6884   Anisotropy =    12.8627

     82  Bq   Isotropic =     1.5550   Anisotropy =    12.7769

     83  Bq   Isotropic =     1.4144   Anisotropy =    12.6647

     84  Bq   Isotropic =     1.2728   Anisotropy =    12.5323

     85  Bq   Isotropic =     1.1351   Anisotropy =    12.3851

     86  Bq   Isotropic =     1.0050   Anisotropy =    12.2280

     87  Bq   Isotropic =     0.8852   Anisotropy =    12.0650

     88  Bq   Isotropic =     0.7772   Anisotropy =    11.8995

     89  Bq   Isotropic =     0.6817   Anisotropy =    11.7340

     90  Bq   Isotropic =     0.5987   Anisotropy =    11.5704

     91  Bq   Isotropic =     0.5279   Anisotropy =    11.4102

     92  Bq   Isotropic =     0.4685   Anisotropy =    11.2547

     93  Bq   Isotropic =     0.4198   Anisotropy =    11.1048

     94  Bq   Isotropic =     0.3808   Anisotropy =    10.9613

     95  Bq   Isotropic =     0.3509   Anisotropy =    10.8249

     96  Bq   Isotropic =     0.3291   Anisotropy =    10.6962

     97  Bq   Isotropic =     0.3149   Anisotropy =    10.5759

     98  Bq   Isotropic =     0.3076   Anisotropy =    10.4648

     99  Bq   Isotropic =     0.3067   Anisotropy =    10.3634

    100  Bq   Isotropic =     0.3117   Anisotropy =    10.2727

    101  Bq   Isotropic =     0.3223   Anisotropy =    10.1934

    102  Bq   Isotropic =     0.3382   Anisotropy =    10.1264

    103  Bq   Isotropic =     0.3591   Anisotropy =    10.0726

    104  Bq   Isotropic =     0.3851   Anisotropy =    10.0330

    105  Bq   Isotropic =     0.4162   Anisotropy =    10.0087

    106  Bq   Isotropic =     0.4525   Anisotropy =    10.0009

    107  Bq   Isotropic =     0.4946   Anisotropy =    10.0107

    108  Bq   Isotropic =     0.5430   Anisotropy =    10.0392

    109  Bq   Isotropic =     0.6842   Anisotropy =    10.4929

    110  Bq   Isotropic =     0.7334   Anisotropy =    10.5505

    111  Bq   Isotropic =     0.7878   Anisotropy =    10.6226

    112  Bq   Isotropic =     0.8473   Anisotropy =    10.7091

    113  Bq   Isotropic =     0.9116   Anisotropy =    10.8095

    114  Bq   Isotropic =     0.9803   Anisotropy =    10.9228

    115  Bq   Isotropic =     1.0524   Anisotropy =    11.0477

    116  Bq   Isotropic =     1.1266   Anisotropy =    11.1822

    117  Bq   Isotropic =     1.2014   Anisotropy =    11.3240

    118  Bq   Isotropic =     1.2744   Anisotropy =    11.4700

    119  Bq   Isotropic =     1.3434   Anisotropy =    11.6167

    120  Bq   Isotropic =     1.4056   Anisotropy =    11.7603

    121  Bq   Isotropic =     1.4582   Anisotropy =    11.8966

    122  Bq   Isotropic =     1.4989   Anisotropy =    12.0214

    123  Bq   Isotropic =     1.5254   Anisotropy =    12.1308

    124  Bq   Isotropic =     1.5362   Anisotropy =    12.2214

    125  Bq   Isotropic =     1.5307   Anisotropy =    12.2907

    126  Bq   Isotropic =     1.5089   Anisotropy =    12.3368

    127  Bq   Isotropic =     1.4718   Anisotropy =    12.3592

    128  Bq   Isotropic =     1.4210   Anisotropy =    12.3581

    129  Bq   Isotropic =     1.3589   Anisotropy =    12.3348

    130  Bq   Isotropic =     1.2881   Anisotropy =    12.2911

    131  Bq   Isotropic =     1.2113   Anisotropy =    12.2295

    132  Bq   Isotropic =     1.1313   Anisotropy =    12.1526

    133  Bq   Isotropic =     1.0505   Anisotropy =    12.0634

    134  Bq   Isotropic =     0.9713   Anisotropy =    11.9644

    135  Bq   Isotropic =     0.8953   Anisotropy =    11.8583

    136  Bq   Isotropic =     0.8239   Anisotropy =    11.7473

    137  Bq   Isotropic =     0.7582   Anisotropy =    11.6335

    138  Bq   Isotropic =     0.6987   Anisotropy =    11.5187

    139  Bq   Isotropic =     0.6459   Anisotropy =    11.4044

    140  Bq   Isotropic =     0.6000   Anisotropy =    11.2919

    141  Bq   Isotropic =     0.5607   Anisotropy =    11.1823

    142  Bq   Isotropic =     0.5281   Anisotropy =    11.0768

    143  Bq   Isotropic =     0.5019   Anisotropy =    10.9761

    144  Bq   Isotropic =     0.4818   Anisotropy =    10.8812

    145  Bq   Isotropic =     0.4676   Anisotropy =    10.7927

    146  Bq   Isotropic =     0.4590   Anisotropy =    10.7115

    147  Bq   Isotropic =     0.4556   Anisotropy =    10.6382

    148  Bq   Isotropic =     0.4574   Anisotropy =    10.5736

    149  Bq   Isotropic =     0.4641   Anisotropy =    10.5183

    150  Bq   Isotropic =     0.4754   Anisotropy =    10.4730

    151  Bq   Isotropic =     0.4914   Anisotropy =    10.4385

    152  Bq   Isotropic =     0.5119   Anisotropy =    10.4153

    153  Bq   Isotropic =     0.5370   Anisotropy =    10.4043

    154  Bq   Isotropic =     0.5666   Anisotropy =    10.4060

    155  Bq   Isotropic =     0.6009   Anisotropy =    10.4210

    156  Bq   Isotropic =     0.6401   Anisotropy =    10.4498

    157  Bq   Isotropic =     0.7746   Anisotropy =    10.9032

    158  Bq   Isotropic =     0.8028   Anisotropy =    10.9377

    159  Bq   Isotropic =     0.8330   Anisotropy =    10.9792

    160  Bq   Isotropic =     0.8649   Anisotropy =    11.0272

    161  Bq   Isotropic =     0.8979   Anisotropy =    11.0809

    162  Bq   Isotropic =     0.9317   Anisotropy =    11.1398

    163  Bq   Isotropic =     0.9656   Anisotropy =    11.2028

    164  Bq   Isotropic =     0.9990   Anisotropy =    11.2689

    165  Bq   Isotropic =     1.0312   Anisotropy =    11.3368

    166  Bq   Isotropic =     1.0614   Anisotropy =    11.4052

    167  Bq   Isotropic =     1.0888   Anisotropy =    11.4727

    168  Bq   Isotropic =     1.1126   Anisotropy =    11.5376

    169  Bq   Isotropic =     1.1320   Anisotropy =    11.5987

    170  Bq   Isotropic =     1.1465   Anisotropy =    11.6544

    171  Bq   Isotropic =     1.1556   Anisotropy =    11.7034

    172  Bq   Isotropic =     1.1588   Anisotropy =    11.7446

    173  Bq   Isotropic =     1.1560   Anisotropy =    11.7771

    174  Bq   Isotropic =     1.1473   Anisotropy =    11.8003

    175  Bq   Isotropic =     1.1330   Anisotropy =    11.8137

    176  Bq   Isotropic =     1.1133   Anisotropy =    11.8172

    177  Bq   Isotropic =     1.0890   Anisotropy =    11.8110

    178  Bq   Isotropic =     1.0607   Anisotropy =    11.7955

    179  Bq   Isotropic =     1.0293   Anisotropy =    11.7713

    180  Bq   Isotropic =     0.9955   Anisotropy =    11.7391

    181  Bq   Isotropic =     0.9603   Anisotropy =    11.6999

    182  Bq   Isotropic =     0.9245   Anisotropy =    11.6547

    183  Bq   Isotropic =     0.8888   Anisotropy =    11.6044

    184  Bq   Isotropic =     0.8539   Anisotropy =    11.5501

    185  Bq   Isotropic =     0.8205   Anisotropy =    11.4928

    186  Bq   Isotropic =     0.7891   Anisotropy =    11.4337

    187  Bq   Isotropic =     0.7600   Anisotropy =    11.3735

    188  Bq   Isotropic =     0.7337   Anisotropy =    11.3132

    189  Bq   Isotropic =     0.7103   Anisotropy =    11.2537

    190  Bq   Isotropic =     0.6901   Anisotropy =    11.1957

    191  Bq   Isotropic =     0.6732   Anisotropy =    11.1401

    192  Bq   Isotropic =     0.6596   Anisotropy =    11.0874

    193  Bq   Isotropic =     0.6494   Anisotropy =    11.0383

    194  Bq   Isotropic =     0.6426   Anisotropy =    10.9935

    195  Bq   Isotropic =     0.6391   Anisotropy =    10.9534

    196  Bq   Isotropic =     0.6389   Anisotropy =    10.9186

    197  Bq   Isotropic =     0.6420   Anisotropy =    10.8896

    198  Bq   Isotropic =     0.6483   Anisotropy =    10.8667

    199  Bq   Isotropic =     0.6578   Anisotropy =    10.8503

    200  Bq   Isotropic =     0.6702   Anisotropy =    10.8408

    201  Bq   Isotropic =     0.6856   Anisotropy =    10.8385

    202  Bq   Isotropic =     0.7039   Anisotropy =    10.8435

    203  Bq   Isotropic =     0.7249   Anisotropy =    10.8559

    204  Bq   Isotropic =     0.7485   Anisotropy =    10.8758

    205  Bq   Isotropic =     1.0969   Anisotropy =    27.3777

    206  Bq   Isotropic =     1.0969   Anisotropy =    27.3777

    207  Bq   Isotropic =     1.0969   Anisotropy =    27.3777

    208  Bq   Isotropic =     1.0969   Anisotropy =    27.3777

    209  Bq   Isotropic =     1.0969   Anisotropy =    27.3777

    210  Bq   Isotropic =     1.0969   Anisotropy =    27.3777

    211  Bq   Isotropic =     1.0969   Anisotropy =    27.3777

    212  Bq   Isotropic =     1.0969   Anisotropy =    27.3777

    213  Bq   Isotropic =     1.0969   Anisotropy =    27.3777

    214  Bq   Isotropic =     1.0969   Anisotropy =    27.3777

    215  Bq   Isotropic =     1.0969   Anisotropy =    27.3777

    216  Bq   Isotropic =     1.0969   Anisotropy =    27.3777

    217  Bq   Isotropic =     1.0969   Anisotropy =    27.3777

    218  Bq   Isotropic =     1.0969   Anisotropy =    27.3777

    219  Bq   Isotropic =     1.0969   Anisotropy =    27.3777

    220  Bq   Isotropic =     1.0969   Anisotropy =    27.3777

    221  Bq   Isotropic =     1.0969   Anisotropy =    27.3777

    222  Bq   Isotropic =     1.0969   Anisotropy =    27.3777

    223  Bq   Isotropic =     1.0969   Anisotropy =    27.3777

    224  Bq   Isotropic =     1.0969   Anisotropy =    27.3777

    225  Bq   Isotropic =     1.0969   Anisotropy =    27.3777

    226  Bq   Isotropic =     1.0969   Anisotropy =    27.3777

    227  Bq   Isotropic =     1.0969   Anisotropy =    27.3777

    228  Bq   Isotropic =     1.0969   Anisotropy =    27.3777

    229  Bq   Isotropic =     1.0969   Anisotropy =    27.3777

    230  Bq   Isotropic =     1.0969   Anisotropy =    27.3777

    231  Bq   Isotropic =     1.0969   Anisotropy =    27.3777

    232  Bq   Isotropic =     1.0969   Anisotropy =    27.3777

    233  Bq   Isotropic =     1.0969   Anisotropy =    27.3777

    234  Bq   Isotropic =     1.0969   Anisotropy =    27.3777

    235  Bq   Isotropic =     1.0969   Anisotropy =    27.3777

    236  Bq   Isotropic =     1.0969   Anisotropy =    27.3777

 Alpha  occ. eigenvalues --  -10.19960 -10.19921 -10.19472 -10.19472 -10.19346
 Alpha  occ. eigenvalues --  -10.19345 -10.19156 -10.19156 -10.18400 -10.18358
 Alpha  occ. eigenvalues --  -10.18358 -10.18334 -10.18284 -10.18284 -10.18165
 Alpha  occ. eigenvalues --  -10.18165 -10.18095 -10.18095 -10.17963 -10.17963
 Alpha  occ. eigenvalues --  -10.17824 -10.17823  -0.89797  -0.87620  -0.85475
 Alpha  occ. eigenvalues --   -0.82752  -0.80344  -0.79203  -0.76680  -0.75330
 Alpha  occ. eigenvalues --   -0.74171  -0.72484  -0.71652  -0.64666  -0.64341
 Alpha  occ. eigenvalues --   -0.61965  -0.61542  -0.61533  -0.58187  -0.55894
 Alpha  occ. eigenvalues --   -0.53514  -0.53191  -0.50675  -0.50278  -0.49776
 Alpha  occ. eigenvalues --   -0.47147  -0.46874  -0.45765  -0.43850  -0.43766
 Alpha  occ. eigenvalues --   -0.43742  -0.43070  -0.42518  -0.42102  -0.40779
 Alpha  occ. eigenvalues --   -0.40557  -0.39592  -0.39317  -0.37559  -0.37153
 Alpha  occ. eigenvalues --   -0.36701  -0.35593  -0.35070  -0.33814  -0.33408
 Alpha  occ. eigenvalues --   -0.32913  -0.30486  -0.29526  -0.28435  -0.26034
 Alpha  occ. eigenvalues --   -0.23744  -0.21908  -0.21466
 Alpha virt. eigenvalues --   -0.06414  -0.06291  -0.03848  -0.01731  -0.00024
 Alpha virt. eigenvalues --    0.00200   0.00701   0.00739   0.01591   0.01857
 Alpha virt. eigenvalues --    0.02151   0.02954   0.03020   0.03264   0.03888

 Mulliken charges:
               1
     1  C   -0.384058
     2  C   -0.384058
     3  C    0.737923
     4  C    0.737922
     5  C   -0.039994
     6  C   -0.040001
     7  C   -0.044808
     8  C   -0.449359
     9  C    0.780501
    10  C   -0.200782
    11  H    0.121192
    12  H    0.121192
    13  H    0.119964
    14  H    0.119212
    15  C    0.130592
    16  C   -0.679960
    17  C   -0.313984
    18  C   -0.412302
    19  H    0.118681
    20  H    0.146499
    21  H    0.124580
    22  H    0.126111
    23  C   -0.449357
    24  C   -0.044810
    25  C    0.780496
    26  C   -0.200782
    27  C    0.130592
    28  C   -0.412303
    29  C   -0.313983
    30  C   -0.679961
    31  H    0.119212
    32  H    0.119964
    33  H    0.118681
    34  H    0.126111
    35  H    0.124580
    36  H    0.146499
    37  Bq   0.000000
    38  Bq   0.000000
    39  Bq   0.000000
    40  Bq   0.000000
    41  Bq   0.000000
    42  Bq   0.000000
    43  Bq   0.000000
    44  Bq   0.000000
    45  Bq   0.000000
    46  Bq   0.000000
    47  Bq   0.000000
    48  Bq   0.000000
    49  Bq   0.000000
    50  Bq   0.000000
    51  Bq   0.000000
    52  Bq   0.000000
    53  Bq   0.000000
    54  Bq   0.000000
    55  Bq   0.000000
    56  Bq   0.000000
    57  Bq   0.000000
    58  Bq   0.000000
    59  Bq   0.000000
    60  Bq   0.000000
    61  Bq   0.000000
    62  Bq   0.000000
    63  Bq   0.000000
    64  Bq   0.000000
    65  Bq   0.000000
    66  Bq   0.000000
    67  Bq   0.000000
    68  Bq   0.000000
    69  Bq   0.000000
    70  Bq   0.000000
    71  Bq   0.000000
    72  Bq   0.000000
    73  Bq   0.000000
    74  Bq   0.000000
    75  Bq   0.000000
    76  Bq   0.000000
    77  Bq   0.000000
    78  Bq   0.000000
    79  Bq   0.000000
    80  Bq   0.000000
    81  Bq   0.000000
    82  Bq   0.000000
    83  Bq   0.000000
    84  Bq   0.000000
    85  Bq   0.000000
    86  Bq   0.000000
    87  Bq   0.000000
    88  Bq   0.000000
    89  Bq   0.000000
    90  Bq   0.000000
    91  Bq   0.000000
    92  Bq   0.000000
    93  Bq   0.000000
    94  Bq   0.000000
    95  Bq   0.000000
    96  Bq   0.000000
    97  Bq   0.000000
    98  Bq   0.000000
    99  Bq   0.000000
   100  Bq   0.000000
   101  Bq   0.000000
   102  Bq   0.000000
   103  Bq   0.000000
   104  Bq   0.000000
   105  Bq   0.000000
   106  Bq   0.000000
   107  Bq   0.000000
   108  Bq   0.000000
   109  Bq   0.000000
   110  Bq   0.000000
   111  Bq   0.000000
   112  Bq   0.000000
   113  Bq   0.000000
   114  Bq   0.000000
   115  Bq   0.000000
   116  Bq   0.000000
   117  Bq   0.000000
   118  Bq   0.000000
   119  Bq   0.000000
   120  Bq   0.000000
   121  Bq   0.000000
   122  Bq   0.000000
   123  Bq   0.000000
   124  Bq   0.000000
   125  Bq   0.000000
   126  Bq   0.000000
   127  Bq   0.000000
   128  Bq   0.000000
   129  Bq   0.000000
   130  Bq   0.000000
   131  Bq   0.000000
   132  Bq   0.000000
   133  Bq   0.000000
   134  Bq   0.000000
   135  Bq   0.000000
   136  Bq   0.000000
   137  Bq   0.000000
   138  Bq   0.000000
   139  Bq   0.000000
   140  Bq   0.000000
   141  Bq   0.000000
   142  Bq   0.000000
   143  Bq   0.000000
   144  Bq   0.000000
   145  Bq   0.000000
   146  Bq   0.000000
   147  Bq   0.000000
   148  Bq   0.000000
   149  Bq   0.000000
   150  Bq   0.000000
   151  Bq   0.000000
   152  Bq   0.000000
   153  Bq   0.000000
   154  Bq   0.000000
   155  Bq   0.000000
   156  Bq   0.000000
   157  Bq   0.000000
   158  Bq   0.000000
   159  Bq   0.000000
   160  Bq   0.000000
   161  Bq   0.000000
   162  Bq   0.000000
   163  Bq   0.000000
   164  Bq   0.000000
   165  Bq   0.000000
   166  Bq   0.000000
   167  Bq   0.000000
   168  Bq   0.000000
   169  Bq   0.000000
   170  Bq   0.000000
   171  Bq   0.000000
   172  Bq   0.000000
   173  Bq   0.000000
   174  Bq   0.000000
   175  Bq   0.000000
   176  Bq   0.000000
   177  Bq   0.000000
   178  Bq   0.000000
   179  Bq   0.000000
   180  Bq   0.000000
   181  Bq   0.000000
   182  Bq   0.000000
   183  Bq   0.000000
   184  Bq   0.000000
   185  Bq   0.000000
   186  Bq   0.000000
   187  Bq   0.000000
   188  Bq   0.000000
   189  Bq   0.000000
   190  Bq   0.000000
   191  Bq   0.000000
   192  Bq   0.000000
   193  Bq   0.000000
   194  Bq   0.000000
   195  Bq   0.000000
   196  Bq   0.000000
   197  Bq   0.000000
   198  Bq   0.000000
   199  Bq   0.000000
   200  Bq   0.000000
   201  Bq   0.000000
   202  Bq   0.000000
   203  Bq   0.000000
   204  Bq   0.000000
   205  Bq   0.000000
   206  Bq   0.000000
   207  Bq   0.000000
   208  Bq   0.000000
   209  Bq   0.000000
   210  Bq   0.000000
   211  Bq   0.000000
   212  Bq   0.000000
   213  Bq   0.000000
   214  Bq   0.000000
   215  Bq   0.000000
   216  Bq   0.000000
   217  Bq   0.000000
   218  Bq   0.000000
   219  Bq   0.000000
   220  Bq   0.000000
   221  Bq   0.000000
   222  Bq   0.000000
   223  Bq   0.000000
   224  Bq   0.000000
   225  Bq   0.000000
   226  Bq   0.000000
   227  Bq   0.000000
   228  Bq   0.000000
   229  Bq   0.000000
   230  Bq   0.000000
   231  Bq   0.000000
   232  Bq   0.000000
   233  Bq   0.000000
   234  Bq   0.000000
   235  Bq   0.000000
   236  Bq   0.000000
 Sum of Mulliken charges =   0.00000

 Dipole moment (field-independent basis, Debye):
    X=              0.0000    Y=              0.0732    Z=              0.0000  Tot=              0.0732
 Quadrupole moment (field-independent basis, Debye-Ang):
   XX=           -113.9137   YY=           -113.9781   ZZ=           -133.4378
   XY=              0.0000   XZ=             -4.8717   YZ=              0.0000

 Normal termination of Gaussian 09 at Tue Sep 15 13:23:28 2020.
